#LAMMPS 100 water

320 atoms
6 atom types

0.0 16.16 xlo xhi
0.0 16.16 ylo yhi
0.0 16.16 zlo zhi


Masses

1 137.327  #Ba
2 40.078  #Ca
3 208.98 #Bi
4 91.224 #Ti
5 24.305 #Mg
6 15.9993  #o

Atoms

1 1 3 1.470935 0.0 0.0 0.0
2 1 3 1.470935 4.04 0.0 0.0
3 1 3 1.470935 8.08 0.0 0.0
4 1 3 1.470935 12.120000000000001 0.0 0.0
5 1 3 1.470935 0.0 4.04 0.0
6 1 3 1.470935 4.04 4.04 0.0
7 1 3 1.470935 8.08 4.04 0.0
8 1 3 1.470935 12.120000000000001 4.04 0.0
9 1 3 1.470935 0.0 8.08 0.0
10 1 3 1.470935 4.04 8.08 0.0
11 1 3 1.470935 8.08 8.08 0.0
12 1 3 1.470935 12.120000000000001 8.08 0.0
13 1 3 1.470935 0.0 12.120000000000001 0.0
14 1 3 1.470935 4.04 12.120000000000001 0.0
15 1 3 1.470935 8.08 12.120000000000001 0.0
16 1 3 1.470935 12.120000000000001 12.120000000000001 0.0
17 1 3 1.470935 0.0 0.0 4.04
18 1 3 1.470935 4.04 0.0 4.04
19 1 3 1.470935 8.08 0.0 4.04
20 1 3 1.470935 12.120000000000001 0.0 4.04
21 1 3 1.470935 0.0 4.04 4.04
22 1 3 1.470935 4.04 4.04 4.04
23 1 3 1.470935 8.08 4.04 4.04
24 1 3 1.470935 12.120000000000001 4.04 4.04
25 1 3 1.470935 0.0 8.08 4.04
26 1 3 1.470935 4.04 8.08 4.04
27 1 3 1.470935 8.08 8.08 4.04
28 1 3 1.470935 12.120000000000001 8.08 4.04
29 1 3 1.470935 0.0 12.120000000000001 4.04
30 1 3 1.470935 4.04 12.120000000000001 4.04
31 1 3 1.470935 8.08 12.120000000000001 4.04
32 1 3 1.470935 12.120000000000001 12.120000000000001 4.04
33 1 3 1.470935 0.0 0.0 8.08
34 1 3 1.470935 4.04 0.0 8.08
35 1 3 1.470935 8.08 0.0 8.08
36 1 3 1.470935 12.120000000000001 0.0 8.08
37 1 3 1.470935 0.0 4.04 8.08
38 1 3 1.470935 4.04 4.04 8.08
39 1 3 1.470935 8.08 4.04 8.08
40 1 3 1.470935 12.120000000000001 4.04 8.08
41 1 3 1.470935 0.0 8.08 8.08
42 1 3 1.470935 4.04 8.08 8.08
43 1 3 1.470935 8.08 8.08 8.08
44 1 3 1.470935 12.120000000000001 8.08 8.08
45 1 3 1.470935 0.0 12.120000000000001 8.08
46 1 3 1.470935 4.04 12.120000000000001 8.08
47 1 3 1.470935 8.08 12.120000000000001 8.08
48 1 3 1.470935 12.120000000000001 12.120000000000001 8.08
49 1 3 1.470935 0.0 0.0 12.120000000000001
50 1 3 1.470935 4.04 0.0 12.120000000000001
51 1 3 1.470935 8.08 0.0 12.120000000000001
52 1 3 1.470935 12.120000000000001 0.0 12.120000000000001
53 1 3 1.470935 0.0 4.04 12.120000000000001
54 1 3 1.470935 4.04 4.04 12.120000000000001
55 1 3 1.470935 8.08 4.04 12.120000000000001
56 1 3 1.470935 12.120000000000001 4.04 12.120000000000001
57 1 3 1.470935 0.0 8.08 12.120000000000001
58 1 3 1.470935 4.04 8.08 12.120000000000001
59 1 3 1.470935 8.08 8.08 12.120000000000001
60 1 3 1.470935 12.120000000000001 8.08 12.120000000000001
61 1 3 1.470935 0.0 12.120000000000001 12.120000000000001
62 1 3 1.470935 4.04 12.120000000000001 12.120000000000001
63 1 3 1.470935 8.08 12.120000000000001 12.120000000000001
64 1 3 1.470935 12.120000000000001 12.120000000000001 12.120000000000001
65 1 5 1.041779 2.02  2.02 2.02
66 1 4 1.28905 6.0600000000000005  2.02 2.02
67 1 5 1.041779 10.1  2.02 2.02
68 1 4 1.28905 14.14  2.02 2.02
69 1 4 1.28905 2.02  6.0600000000000005 2.02
70 1 4 1.28905 6.0600000000000005  6.0600000000000005 2.02
71 1 4 1.28905 10.1  6.0600000000000005 2.02
72 1 4 1.28905 14.14  6.0600000000000005 2.02
73 1 5 1.041779 2.02  10.1 2.02
74 1 5 1.041779 6.0600000000000005  10.1 2.02
75 1 4 1.28905 10.1  10.1 2.02
76 1 4 1.28905 14.14  10.1 2.02
77 1 4 1.28905 2.02  14.14 2.02
78 1 5 1.041779 6.0600000000000005  14.14 2.02
79 1 4 1.28905 10.1  14.14 2.02
80 1 5 1.041779 14.14  14.14 2.02
81 1 4 1.28905 2.02  2.02 6.0600000000000005
82 1 5 1.041779 6.0600000000000005  2.02 6.0600000000000005
83 1 4 1.28905 10.1  2.02 6.0600000000000005
84 1 4 1.28905 14.14  2.02 6.0600000000000005
85 1 4 1.28905 2.02  6.0600000000000005 6.0600000000000005
86 1 4 1.28905 6.0600000000000005  6.0600000000000005 6.0600000000000005
87 1 5 1.041779 10.1  6.0600000000000005 6.0600000000000005
88 1 5 1.041779 14.14  6.0600000000000005 6.0600000000000005
89 1 5 1.041779 2.02  10.1 6.0600000000000005
90 1 5 1.041779 6.0600000000000005  10.1 6.0600000000000005
91 1 5 1.041779 10.1  10.1 6.0600000000000005
92 1 4 1.28905 14.14  10.1 6.0600000000000005
93 1 4 1.28905 2.02  14.14 6.0600000000000005
94 1 5 1.041779 6.0600000000000005  14.14 6.0600000000000005
95 1 5 1.041779 10.1  14.14 6.0600000000000005
96 1 5 1.041779 14.14  14.14 6.0600000000000005
97 1 4 1.28905 2.02  2.02 10.1
98 1 5 1.041779 6.0600000000000005  2.02 10.1
99 1 5 1.041779 10.1  2.02 10.1
100 1 4 1.28905 14.14  2.02 10.1
101 1 5 1.041779 2.02  6.0600000000000005 10.1
102 1 4 1.28905 6.0600000000000005  6.0600000000000005 10.1
103 1 5 1.041779 10.1  6.0600000000000005 10.1
104 1 4 1.28905 14.14  6.0600000000000005 10.1
105 1 4 1.28905 2.02  10.1 10.1
106 1 4 1.28905 6.0600000000000005  10.1 10.1
107 1 4 1.28905 10.1  10.1 10.1
108 1 5 1.041779 14.14  10.1 10.1
109 1 4 1.28905 2.02  14.14 10.1
110 1 4 1.28905 6.0600000000000005  14.14 10.1
111 1 5 1.041779 10.1  14.14 10.1
112 1 4 1.28905 14.14  14.14 10.1
113 1 4 1.28905 2.02  2.02 14.14
114 1 5 1.041779 6.0600000000000005  2.02 14.14
115 1 5 1.041779 10.1  2.02 14.14
116 1 5 1.041779 14.14  2.02 14.14
117 1 4 1.28905 2.02  6.0600000000000005 14.14
118 1 4 1.28905 6.0600000000000005  6.0600000000000005 14.14
119 1 5 1.041779 10.1  6.0600000000000005 14.14
120 1 5 1.041779 14.14  6.0600000000000005 14.14
121 1 4 1.28905 2.02  10.1 14.14
122 1 5 1.041779 6.0600000000000005  10.1 14.14
123 1 5 1.041779 10.1  10.1 14.14
124 1 5 1.041779 14.14  10.1 14.14
125 1 4 1.28905 2.02  14.14 14.14
126 1 5 1.041779 6.0600000000000005  14.14 14.14
127 1 5 1.041779 10.1  14.14 14.14
128 1 5 1.041779 14.14  14.14 14.14
129 1 6 -0.878783 2.02 2.02 0.0
130 1 6 -0.878783 6.0600000000000005 2.02 0.0
131 1 6 -0.878783 10.1 2.02 0.0
132 1 6 -0.878783 14.14 2.02 0.0
133 1 6 -0.878783 2.02 6.0600000000000005 0.0
134 1 6 -0.878783 6.0600000000000005 6.0600000000000005 0.0
135 1 6 -0.878783 10.1 6.0600000000000005 0.0
136 1 6 -0.878783 14.14 6.0600000000000005 0.0
137 1 6 -0.878783 2.02 10.1 0.0
138 1 6 -0.878783 6.0600000000000005 10.1 0.0
139 1 6 -0.878783 10.1 10.1 0.0
140 1 6 -0.878783 14.14 10.1 0.0
141 1 6 -0.878783 2.02 14.14 0.0
142 1 6 -0.878783 6.0600000000000005 14.14 0.0
143 1 6 -0.878783 10.1 14.14 0.0
144 1 6 -0.878783 14.14 14.14 0.0
145 1 6 -0.878783 2.02 2.02 4.04
146 1 6 -0.878783 6.0600000000000005 2.02 4.04
147 1 6 -0.878783 10.1 2.02 4.04
148 1 6 -0.878783 14.14 2.02 4.04
149 1 6 -0.878783 2.02 6.0600000000000005 4.04
150 1 6 -0.878783 6.0600000000000005 6.0600000000000005 4.04
151 1 6 -0.878783 10.1 6.0600000000000005 4.04
152 1 6 -0.878783 14.14 6.0600000000000005 4.04
153 1 6 -0.878783 2.02 10.1 4.04
154 1 6 -0.878783 6.0600000000000005 10.1 4.04
155 1 6 -0.878783 10.1 10.1 4.04
156 1 6 -0.878783 14.14 10.1 4.04
157 1 6 -0.878783 2.02 14.14 4.04
158 1 6 -0.878783 6.0600000000000005 14.14 4.04
159 1 6 -0.878783 10.1 14.14 4.04
160 1 6 -0.878783 14.14 14.14 4.04
161 1 6 -0.878783 2.02 2.02 8.08
162 1 6 -0.878783 6.0600000000000005 2.02 8.08
163 1 6 -0.878783 10.1 2.02 8.08
164 1 6 -0.878783 14.14 2.02 8.08
165 1 6 -0.878783 2.02 6.0600000000000005 8.08
166 1 6 -0.878783 6.0600000000000005 6.0600000000000005 8.08
167 1 6 -0.878783 10.1 6.0600000000000005 8.08
168 1 6 -0.878783 14.14 6.0600000000000005 8.08
169 1 6 -0.878783 2.02 10.1 8.08
170 1 6 -0.878783 6.0600000000000005 10.1 8.08
171 1 6 -0.878783 10.1 10.1 8.08
172 1 6 -0.878783 14.14 10.1 8.08
173 1 6 -0.878783 2.02 14.14 8.08
174 1 6 -0.878783 6.0600000000000005 14.14 8.08
175 1 6 -0.878783 10.1 14.14 8.08
176 1 6 -0.878783 14.14 14.14 8.08
177 1 6 -0.878783 2.02 2.02 12.120000000000001
178 1 6 -0.878783 6.0600000000000005 2.02 12.120000000000001
179 1 6 -0.878783 10.1 2.02 12.120000000000001
180 1 6 -0.878783 14.14 2.02 12.120000000000001
181 1 6 -0.878783 2.02 6.0600000000000005 12.120000000000001
182 1 6 -0.878783 6.0600000000000005 6.0600000000000005 12.120000000000001
183 1 6 -0.878783 10.1 6.0600000000000005 12.120000000000001
184 1 6 -0.878783 14.14 6.0600000000000005 12.120000000000001
185 1 6 -0.878783 2.02 10.1 12.120000000000001
186 1 6 -0.878783 6.0600000000000005 10.1 12.120000000000001
187 1 6 -0.878783 10.1 10.1 12.120000000000001
188 1 6 -0.878783 14.14 10.1 12.120000000000001
189 1 6 -0.878783 2.02 14.14 12.120000000000001
190 1 6 -0.878783 6.0600000000000005 14.14 12.120000000000001
191 1 6 -0.878783 10.1 14.14 12.120000000000001
192 1 6 -0.878783 14.14 14.14 12.120000000000001
193 1 6 -0.878783 2.02 0.0 2.02
194 1 6 -0.878783 6.0600000000000005 0.0 2.02
195 1 6 -0.878783 10.1 0.0 2.02
196 1 6 -0.878783 14.14 0.0 2.02
197 1 6 -0.878783 2.02 4.04 2.02
198 1 6 -0.878783 6.0600000000000005 4.04 2.02
199 1 6 -0.878783 10.1 4.04 2.02
200 1 6 -0.878783 14.14 4.04 2.02
201 1 6 -0.878783 2.02 8.08 2.02
202 1 6 -0.878783 6.0600000000000005 8.08 2.02
203 1 6 -0.878783 10.1 8.08 2.02
204 1 6 -0.878783 14.14 8.08 2.02
205 1 6 -0.878783 2.02 12.120000000000001 2.02
206 1 6 -0.878783 6.0600000000000005 12.120000000000001 2.02
207 1 6 -0.878783 10.1 12.120000000000001 2.02
208 1 6 -0.878783 14.14 12.120000000000001 2.02
209 1 6 -0.878783 2.02 0.0 6.0600000000000005
210 1 6 -0.878783 6.0600000000000005 0.0 6.0600000000000005
211 1 6 -0.878783 10.1 0.0 6.0600000000000005
212 1 6 -0.878783 14.14 0.0 6.0600000000000005
213 1 6 -0.878783 2.02 4.04 6.0600000000000005
214 1 6 -0.878783 6.0600000000000005 4.04 6.0600000000000005
215 1 6 -0.878783 10.1 4.04 6.0600000000000005
216 1 6 -0.878783 14.14 4.04 6.0600000000000005
217 1 6 -0.878783 2.02 8.08 6.0600000000000005
218 1 6 -0.878783 6.0600000000000005 8.08 6.0600000000000005
219 1 6 -0.878783 10.1 8.08 6.0600000000000005
220 1 6 -0.878783 14.14 8.08 6.0600000000000005
221 1 6 -0.878783 2.02 12.120000000000001 6.0600000000000005
222 1 6 -0.878783 6.0600000000000005 12.120000000000001 6.0600000000000005
223 1 6 -0.878783 10.1 12.120000000000001 6.0600000000000005
224 1 6 -0.878783 14.14 12.120000000000001 6.0600000000000005
225 1 6 -0.878783 2.02 0.0 10.1
226 1 6 -0.878783 6.0600000000000005 0.0 10.1
227 1 6 -0.878783 10.1 0.0 10.1
228 1 6 -0.878783 14.14 0.0 10.1
229 1 6 -0.878783 2.02 4.04 10.1
230 1 6 -0.878783 6.0600000000000005 4.04 10.1
231 1 6 -0.878783 10.1 4.04 10.1
232 1 6 -0.878783 14.14 4.04 10.1
233 1 6 -0.878783 2.02 8.08 10.1
234 1 6 -0.878783 6.0600000000000005 8.08 10.1
235 1 6 -0.878783 10.1 8.08 10.1
236 1 6 -0.878783 14.14 8.08 10.1
237 1 6 -0.878783 2.02 12.120000000000001 10.1
238 1 6 -0.878783 6.0600000000000005 12.120000000000001 10.1
239 1 6 -0.878783 10.1 12.120000000000001 10.1
240 1 6 -0.878783 14.14 12.120000000000001 10.1
241 1 6 -0.878783 2.02 0.0 14.14
242 1 6 -0.878783 6.0600000000000005 0.0 14.14
243 1 6 -0.878783 10.1 0.0 14.14
244 1 6 -0.878783 14.14 0.0 14.14
245 1 6 -0.878783 2.02 4.04 14.14
246 1 6 -0.878783 6.0600000000000005 4.04 14.14
247 1 6 -0.878783 10.1 4.04 14.14
248 1 6 -0.878783 14.14 4.04 14.14
249 1 6 -0.878783 2.02 8.08 14.14
250 1 6 -0.878783 6.0600000000000005 8.08 14.14
251 1 6 -0.878783 10.1 8.08 14.14
252 1 6 -0.878783 14.14 8.08 14.14
253 1 6 -0.878783 2.02 12.120000000000001 14.14
254 1 6 -0.878783 6.0600000000000005 12.120000000000001 14.14
255 1 6 -0.878783 10.1 12.120000000000001 14.14
256 1 6 -0.878783 14.14 12.120000000000001 14.14
257 1 6 -0.878783 0.0 2.02 2.02
258 1 6 -0.878783 4.04 2.02 2.02
259 1 6 -0.878783 8.08 2.02 2.02
260 1 6 -0.878783 12.120000000000001 2.02 2.02
261 1 6 -0.878783 0.0 6.0600000000000005 2.02
262 1 6 -0.878783 4.04 6.0600000000000005 2.02
263 1 6 -0.878783 8.08 6.0600000000000005 2.02
264 1 6 -0.878783 12.120000000000001 6.0600000000000005 2.02
265 1 6 -0.878783 0.0 10.1 2.02
266 1 6 -0.878783 4.04 10.1 2.02
267 1 6 -0.878783 8.08 10.1 2.02
268 1 6 -0.878783 12.120000000000001 10.1 2.02
269 1 6 -0.878783 0.0 14.14 2.02
270 1 6 -0.878783 4.04 14.14 2.02
271 1 6 -0.878783 8.08 14.14 2.02
272 1 6 -0.878783 12.120000000000001 14.14 2.02
273 1 6 -0.878783 0.0 2.02 6.0600000000000005
274 1 6 -0.878783 4.04 2.02 6.0600000000000005
275 1 6 -0.878783 8.08 2.02 6.0600000000000005
276 1 6 -0.878783 12.120000000000001 2.02 6.0600000000000005
277 1 6 -0.878783 0.0 6.0600000000000005 6.0600000000000005
278 1 6 -0.878783 4.04 6.0600000000000005 6.0600000000000005
279 1 6 -0.878783 8.08 6.0600000000000005 6.0600000000000005
280 1 6 -0.878783 12.120000000000001 6.0600000000000005 6.0600000000000005
281 1 6 -0.878783 0.0 10.1 6.0600000000000005
282 1 6 -0.878783 4.04 10.1 6.0600000000000005
283 1 6 -0.878783 8.08 10.1 6.0600000000000005
284 1 6 -0.878783 12.120000000000001 10.1 6.0600000000000005
285 1 6 -0.878783 0.0 14.14 6.0600000000000005
286 1 6 -0.878783 4.04 14.14 6.0600000000000005
287 1 6 -0.878783 8.08 14.14 6.0600000000000005
288 1 6 -0.878783 12.120000000000001 14.14 6.0600000000000005
289 1 6 -0.878783 0.0 2.02 10.1
290 1 6 -0.878783 4.04 2.02 10.1
291 1 6 -0.878783 8.08 2.02 10.1
292 1 6 -0.878783 12.120000000000001 2.02 10.1
293 1 6 -0.878783 0.0 6.0600000000000005 10.1
294 1 6 -0.878783 4.04 6.0600000000000005 10.1
295 1 6 -0.878783 8.08 6.0600000000000005 10.1
296 1 6 -0.878783 12.120000000000001 6.0600000000000005 10.1
297 1 6 -0.878783 0.0 10.1 10.1
298 1 6 -0.878783 4.04 10.1 10.1
299 1 6 -0.878783 8.08 10.1 10.1
300 1 6 -0.878783 12.120000000000001 10.1 10.1
301 1 6 -0.878783 0.0 14.14 10.1
302 1 6 -0.878783 4.04 14.14 10.1
303 1 6 -0.878783 8.08 14.14 10.1
304 1 6 -0.878783 12.120000000000001 14.14 10.1
305 1 6 -0.878783 0.0 2.02 14.14
306 1 6 -0.878783 4.04 2.02 14.14
307 1 6 -0.878783 8.08 2.02 14.14
308 1 6 -0.878783 12.120000000000001 2.02 14.14
309 1 6 -0.878783 0.0 6.0600000000000005 14.14
310 1 6 -0.878783 4.04 6.0600000000000005 14.14
311 1 6 -0.878783 8.08 6.0600000000000005 14.14
312 1 6 -0.878783 12.120000000000001 6.0600000000000005 14.14
313 1 6 -0.878783 0.0 10.1 14.14
314 1 6 -0.878783 4.04 10.1 14.14
315 1 6 -0.878783 8.08 10.1 14.14
316 1 6 -0.878783 12.120000000000001 10.1 14.14
317 1 6 -0.878783 0.0 14.14 14.14
318 1 6 -0.878783 4.04 14.14 14.14
319 1 6 -0.878783 8.08 14.14 14.14
320 1 6 -0.878783 12.120000000000001 14.14 14.14
