
     Program PWSCF v.6.5 starts on  6Feb2021 at 16: 6:26 

     This program is part of the open-source Quantum ESPRESSO suite
     for quantum simulation of materials; please cite
         "P. Giannozzi et al., J. Phys.:Condens. Matter 21 395502 (2009);
         "P. Giannozzi et al., J. Phys.:Condens. Matter 29 465901 (2017);
          URL http://www.quantum-espresso.org", 
     in publications or presentations arising from this work. More details at
     http://www.quantum-espresso.org/quote

     Parallel version (MPI), running on   160 processors

     MPI processes distributed on     4 nodes
     K-points division:     npool     =      16
     R & G space division:  proc/nbgrp/npool/nimage =      10
     Waiting for input...
     Reading input from standard input

     Current dimensions of program PWSCF are:
     Max number of different atomic species (ntypx) = 10
     Max number of k-points (npk) =  40000
     Max angular momentum in pseudopotentials (lmaxx) =  3

     IMPORTANT: XC functional enforced from input :
     Exchange-correlation= PBESOL
                           (   1   4  10   8   0   0   0)
     Any further DFT definition will be discarded
     Please, verify this is what you really want


     Subspace diagonalization in iterative solution of the eigenvalue problem:
     one sub-group per band group will be used
     scalapack distributed-memory algorithm (size of sub-group:  3*  3 procs)

     Found symmetry operation: I + ( -0.5000  0.0000  0.0000)
     This is a supercell, fractional translations are disabled
 
     Parallelization info
     --------------------
     sticks:   dense  smooth     PW     G-vecs:    dense   smooth      PW
     Min         397     397    109                18581    18581    2677
     Max         398     398    110                18584    18584    2680
     Sum        3977    3977   1093               185827   185827   26785
 

     Title: 
     bto                                                                        


     bravais-lattice index     =            0
     lattice parameter (alat)  =      15.9802  a.u.
     unit-cell volume          =    3889.4799 (a.u.)^3
     number of atoms/cell      =           40
     number of atomic types    =            4
     number of electrons       =       320.00
     number of Kohn-Sham states=          160
     kinetic-energy cutoff     =      50.0000  Ry
     charge density cutoff     =     200.0000  Ry
     convergence threshold     =      1.0E-09
     mixing beta               =       0.7000
     number of iterations used =            8  plain     mixing
     Exchange-correlation= PBESOL
                           (   1   4  10   8   0   0   0)
     nstep                     =       100000


     celldm(1)=  15.980154  celldm(2)=   0.000000  celldm(3)=   0.000000
     celldm(4)=   0.000000  celldm(5)=   0.000000  celldm(6)=   0.000000

     crystal axes: (cart. coord. in units of alat)
               a(1) = (   1.000000   0.000000   0.000000 )  
               a(2) = (   0.000000   0.978165   0.000000 )  
               a(3) = (   0.000000   0.000000   0.974398 )  

     reciprocal axes: (cart. coord. in units 2 pi/alat)
               b(1) = (  1.000000  0.000000  0.000000 )  
               b(2) = (  0.000000  1.022322  0.000000 )  
               b(3) = (  0.000000  0.000000  1.026275 )  


     PseudoPot. # 1 for Ba read from file:
     ./ba.upf
     MD5 check sum: 569c1dde556b1c81f66e1af894da4ae7
     Pseudo is Norm-conserving, Zval = 10.0
     Generated by new atomic code, or converted to UPF format
     Using radial grid of 1179 points,  3 beta functions with: 
                l(1) =   0
                l(2) =   1
                l(3) =   2

     PseudoPot. # 2 for O  read from file:
     ./o.upf
     MD5 check sum: 6afdad5913fe366ac5de9e6b2d735f4a
     Pseudo is Norm-conserving, Zval =  6.0
     Generated by new atomic code, or converted to UPF format
     Using radial grid of 1130 points,  1 beta functions with: 
                l(1) =   1

     PseudoPot. # 3 for Zr read from file:
     ./zr.upf
     MD5 check sum: 4323fbb0604ce3758ff2f6a711565820
     Pseudo is Norm-conserving, Zval = 12.0
     Generated by new atomic code, or converted to UPF format
     Using radial grid of 1171 points,  3 beta functions with: 
                l(1) =   0
                l(2) =   1
                l(3) =   2

     PseudoPot. # 4 for Ca read from file:
     ./ca.upf
     MD5 check sum: 9d40c44c50ef0ff3e83632165cb52c7c
     Pseudo is Norm-conserving, Zval = 10.0
     Generated by new atomic code, or converted to UPF format
     Using radial grid of 1153 points,  3 beta functions with: 
                l(1) =   0
                l(2) =   1
                l(3) =   2

     atomic species   valence    mass     pseudopotential
        Ba            10.00   137.32700     Ba( 1.00)
        O              6.00    15.99940     O ( 1.00)
        Zr            12.00    47.86700     Zr( 1.00)
        Ca            10.00    40.08700     Ca( 1.00)

     No symmetry found


                                    s                        frac. trans.

      isym =  1     identity                                     

 cryst.   s( 1) = (     1          0          0      )
                  (     0          1          0      )
                  (     0          0          1      )

 cart.    s( 1) = (  1.0000000  0.0000000  0.0000000 )
                  (  0.0000000  1.0000000  0.0000000 )
                  (  0.0000000  0.0000000  1.0000000 )


   Cartesian axes

     site n.     atom                  positions (alat units)
         1           Ca  tau(   1) = (   0.0752624  -0.0000000  -0.0000000  )
         2           Ca  tau(   2) = (   0.5748478   0.4890827   0.0000000  )
         3           Ca  tau(   3) = (   0.0748477   0.4890827   0.0000000  )
         4           Ca  tau(   4) = (   0.5752624   0.0000000   0.0000000  )
         5           Ba  tau(   5) = (   0.0126359  -0.0000000   0.4871989  )
         6           Ba  tau(   6) = (   0.0126389   0.4890827   0.4871989  )
         7           Ba  tau(   7) = (   0.5126359  -0.0000000   0.4871989  )
         8           Ba  tau(   8) = (   0.5126389   0.4890827   0.4871989  )
         9           Zr  tau(   9) = (   0.2614936   0.2446177   0.2404718  )
        10           Zr  tau(  10) = (   0.2614936   0.2446177   0.7339259  )
        11           Zr  tau(  11) = (   0.2614936   0.7335478   0.2404718  )
        12           Zr  tau(  12) = (   0.2614936   0.7335478   0.7339259  )
        13           Zr  tau(  13) = (   0.7614936   0.2446177   0.2404719  )
        14           Zr  tau(  14) = (   0.7614936   0.2446177   0.7339259  )
        15           Zr  tau(  15) = (   0.7614936   0.7335478   0.2404719  )
        16           Zr  tau(  16) = (   0.7614936   0.7335478   0.7339259  )
        17           O   tau(  17) = (   0.2332562  -0.0000000   0.2307389  )
        18           O   tau(  18) = (   0.2332562   0.0000000   0.7436588  )
        19           O   tau(  19) = (   0.2330049   0.4890827   0.2304624  )
        20           O   tau(  20) = (   0.2330048   0.4890827   0.7439354  )
        21           O   tau(  21) = (   0.7332561   0.0000000   0.2307390  )
        22           O   tau(  22) = (   0.7332561   0.0000000   0.7436588  )
        23           O   tau(  23) = (   0.7330049   0.4890827   0.2304624  )
        24           O   tau(  24) = (   0.7330049   0.4890827   0.7439354  )
        25           O   tau(  25) = (   0.2156885   0.2444256  -0.0000000  )
        26           O   tau(  26) = (   0.2432021   0.2446750   0.4871989  )
        27           O   tau(  27) = (   0.2156885   0.7337399  -0.0000000  )
        28           O   tau(  28) = (   0.2432020   0.7334904   0.4871989  )
        29           O   tau(  29) = (   0.7156887   0.2444256   0.0000000  )
        30           O   tau(  30) = (   0.7432019   0.2446750   0.4871989  )
        31           O   tau(  31) = (   0.7156887   0.7337399   0.0000000  )
        32           O   tau(  32) = (   0.7432019   0.7334905   0.4871989  )
        33           O   tau(  33) = (  -0.0029157   0.2447323   0.2461502  )
        34           O   tau(  34) = (  -0.0029157   0.2447322   0.7282476  )
        35           O   tau(  35) = (  -0.0029157   0.7334332   0.2461502  )
        36           O   tau(  36) = (  -0.0029157   0.7334333   0.7282476  )
        37           O   tau(  37) = (   0.4970843   0.2447323   0.2461499  )
        38           O   tau(  38) = (   0.4970843   0.2447323   0.7282478  )
        39           O   tau(  39) = (   0.4970843   0.7334332   0.2461500  )
        40           O   tau(  40) = (   0.4970843   0.7334332   0.7282478  )

   Crystallographic axes

     site n.     atom                  positions (cryst. coord.)
         1           Ca  tau(   1) = (  0.0752624 -0.0000000 -0.0000000  )
         2           Ca  tau(   2) = (  0.5748478  0.5000000  0.0000000  )
         3           Ca  tau(   3) = (  0.0748477  0.5000000  0.0000000  )
         4           Ca  tau(   4) = (  0.5752624  0.0000000  0.0000000  )
         5           Ba  tau(   5) = (  0.0126359 -0.0000000  0.5000000  )
         6           Ba  tau(   6) = (  0.0126389  0.5000000  0.5000000  )
         7           Ba  tau(   7) = (  0.5126359 -0.0000000  0.5000000  )
         8           Ba  tau(   8) = (  0.5126389  0.5000000  0.5000000  )
         9           Zr  tau(   9) = (  0.2614936  0.2500780  0.2467902  )
        10           Zr  tau(  10) = (  0.2614936  0.2500780  0.7532098  )
        11           Zr  tau(  11) = (  0.2614936  0.7499220  0.2467902  )
        12           Zr  tau(  12) = (  0.2614936  0.7499220  0.7532098  )
        13           Zr  tau(  13) = (  0.7614936  0.2500780  0.2467902  )
        14           Zr  tau(  14) = (  0.7614936  0.2500780  0.7532098  )
        15           Zr  tau(  15) = (  0.7614936  0.7499220  0.2467902  )
        16           Zr  tau(  16) = (  0.7614936  0.7499220  0.7532098  )
        17           O   tau(  17) = (  0.2332562 -0.0000000  0.2368016  )
        18           O   tau(  18) = (  0.2332562  0.0000000  0.7631984  )
        19           O   tau(  19) = (  0.2330049  0.5000000  0.2365177  )
        20           O   tau(  20) = (  0.2330048  0.5000000  0.7634822  )
        21           O   tau(  21) = (  0.7332561  0.0000000  0.2368016  )
        22           O   tau(  22) = (  0.7332561  0.0000000  0.7631984  )
        23           O   tau(  23) = (  0.7330049  0.5000000  0.2365178  )
        24           O   tau(  24) = (  0.7330049  0.5000000  0.7634822  )
        25           O   tau(  25) = (  0.2156885  0.2498816 -0.0000000  )
        26           O   tau(  26) = (  0.2432021  0.2501367  0.5000000  )
        27           O   tau(  27) = (  0.2156885  0.7501184 -0.0000000  )
        28           O   tau(  28) = (  0.2432020  0.7498633  0.5000000  )
        29           O   tau(  29) = (  0.7156887  0.2498816  0.0000000  )
        30           O   tau(  30) = (  0.7432019  0.2501366  0.5000000  )
        31           O   tau(  31) = (  0.7156887  0.7501184  0.0000000  )
        32           O   tau(  32) = (  0.7432019  0.7498634  0.5000000  )
        33           O   tau(  33) = ( -0.0029157  0.2501951  0.2526178  )
        34           O   tau(  34) = ( -0.0029157  0.2501951  0.7473822  )
        35           O   tau(  35) = ( -0.0029157  0.7498049  0.2526177  )
        36           O   tau(  36) = ( -0.0029157  0.7498049  0.7473823  )
        37           O   tau(  37) = (  0.4970843  0.2501952  0.2526175  )
        38           O   tau(  38) = (  0.4970843  0.2501952  0.7473825  )
        39           O   tau(  39) = (  0.4970843  0.7498048  0.2526175  )
        40           O   tau(  40) = (  0.4970843  0.7498048  0.7473825  )

     number of k points=    36
                       cart. coord. in units 2pi/alat
        k(    1) = (   0.0000000   0.0000000   0.0000000), wk =   0.0312500
        k(    2) = (   0.0000000   0.0000000   0.2565687), wk =   0.0625000
        k(    3) = (   0.0000000   0.0000000  -0.5131375), wk =   0.0312500
        k(    4) = (   0.0000000   0.2555805   0.0000000), wk =   0.0625000
        k(    5) = (   0.0000000   0.2555805   0.2565687), wk =   0.0625000
        k(    6) = (   0.0000000   0.2555805  -0.5131375), wk =   0.0625000
        k(    7) = (   0.0000000   0.2555805  -0.2565687), wk =   0.0625000
        k(    8) = (   0.0000000  -0.5111609   0.0000000), wk =   0.0312500
        k(    9) = (   0.0000000  -0.5111609   0.2565687), wk =   0.0625000
        k(   10) = (   0.0000000  -0.5111609  -0.5131375), wk =   0.0312500
        k(   11) = (   0.2500000   0.0000000   0.0000000), wk =   0.0625000
        k(   12) = (   0.2500000   0.0000000   0.2565687), wk =   0.0625000
        k(   13) = (   0.2500000   0.0000000  -0.5131375), wk =   0.0625000
        k(   14) = (   0.2500000   0.0000000  -0.2565687), wk =   0.0625000
        k(   15) = (   0.2500000   0.2555805   0.0000000), wk =   0.0625000
        k(   16) = (   0.2500000   0.2555805   0.2565687), wk =   0.0625000
        k(   17) = (   0.2500000   0.2555805  -0.5131375), wk =   0.0625000
        k(   18) = (   0.2500000   0.2555805  -0.2565687), wk =   0.0625000
        k(   19) = (   0.2500000  -0.5111609   0.0000000), wk =   0.0625000
        k(   20) = (   0.2500000  -0.5111609   0.2565687), wk =   0.0625000
        k(   21) = (   0.2500000  -0.5111609  -0.5131375), wk =   0.0625000
        k(   22) = (   0.2500000  -0.5111609  -0.2565687), wk =   0.0625000
        k(   23) = (   0.2500000  -0.2555805   0.0000000), wk =   0.0625000
        k(   24) = (   0.2500000  -0.2555805   0.2565687), wk =   0.0625000
        k(   25) = (   0.2500000  -0.2555805  -0.5131375), wk =   0.0625000
        k(   26) = (   0.2500000  -0.2555805  -0.2565687), wk =   0.0625000
        k(   27) = (  -0.5000000   0.0000000   0.0000000), wk =   0.0312500
        k(   28) = (  -0.5000000   0.0000000   0.2565687), wk =   0.0625000
        k(   29) = (  -0.5000000   0.0000000  -0.5131375), wk =   0.0312500
        k(   30) = (  -0.5000000   0.2555805   0.0000000), wk =   0.0625000
        k(   31) = (  -0.5000000   0.2555805   0.2565687), wk =   0.0625000
        k(   32) = (  -0.5000000   0.2555805  -0.5131375), wk =   0.0625000
        k(   33) = (  -0.5000000   0.2555805  -0.2565687), wk =   0.0625000
        k(   34) = (  -0.5000000  -0.5111609   0.0000000), wk =   0.0312500
        k(   35) = (  -0.5000000  -0.5111609   0.2565687), wk =   0.0625000
        k(   36) = (  -0.5000000  -0.5111609  -0.5131375), wk =   0.0312500

                       cryst. coord.
        k(    1) = (   0.0000000   0.0000000   0.0000000), wk =   0.0312500
        k(    2) = (   0.0000000   0.0000000   0.2500000), wk =   0.0625000
        k(    3) = (   0.0000000   0.0000000  -0.5000000), wk =   0.0312500
        k(    4) = (   0.0000000   0.2500000   0.0000000), wk =   0.0625000
        k(    5) = (   0.0000000   0.2500000   0.2500000), wk =   0.0625000
        k(    6) = (   0.0000000   0.2500000  -0.5000000), wk =   0.0625000
        k(    7) = (   0.0000000   0.2500000  -0.2500000), wk =   0.0625000
        k(    8) = (   0.0000000  -0.5000000   0.0000000), wk =   0.0312500
        k(    9) = (   0.0000000  -0.5000000   0.2500000), wk =   0.0625000
        k(   10) = (   0.0000000  -0.5000000  -0.5000000), wk =   0.0312500
        k(   11) = (   0.2500000   0.0000000   0.0000000), wk =   0.0625000
        k(   12) = (   0.2500000   0.0000000   0.2500000), wk =   0.0625000
        k(   13) = (   0.2500000   0.0000000  -0.5000000), wk =   0.0625000
        k(   14) = (   0.2500000   0.0000000  -0.2500000), wk =   0.0625000
        k(   15) = (   0.2500000   0.2500000   0.0000000), wk =   0.0625000
        k(   16) = (   0.2500000   0.2500000   0.2500000), wk =   0.0625000
        k(   17) = (   0.2500000   0.2500000  -0.5000000), wk =   0.0625000
        k(   18) = (   0.2500000   0.2500000  -0.2500000), wk =   0.0625000
        k(   19) = (   0.2500000  -0.5000000   0.0000000), wk =   0.0625000
        k(   20) = (   0.2500000  -0.5000000   0.2500000), wk =   0.0625000
        k(   21) = (   0.2500000  -0.5000000  -0.5000000), wk =   0.0625000
        k(   22) = (   0.2500000  -0.5000000  -0.2500000), wk =   0.0625000
        k(   23) = (   0.2500000  -0.2500000   0.0000000), wk =   0.0625000
        k(   24) = (   0.2500000  -0.2500000   0.2500000), wk =   0.0625000
        k(   25) = (   0.2500000  -0.2500000  -0.5000000), wk =   0.0625000
        k(   26) = (   0.2500000  -0.2500000  -0.2500000), wk =   0.0625000
        k(   27) = (  -0.5000000   0.0000000   0.0000000), wk =   0.0312500
        k(   28) = (  -0.5000000   0.0000000   0.2500000), wk =   0.0625000
        k(   29) = (  -0.5000000   0.0000000  -0.5000000), wk =   0.0312500
        k(   30) = (  -0.5000000   0.2500000   0.0000000), wk =   0.0625000
        k(   31) = (  -0.5000000   0.2500000   0.2500000), wk =   0.0625000
        k(   32) = (  -0.5000000   0.2500000  -0.5000000), wk =   0.0625000
        k(   33) = (  -0.5000000   0.2500000  -0.2500000), wk =   0.0625000
        k(   34) = (  -0.5000000  -0.5000000   0.0000000), wk =   0.0312500
        k(   35) = (  -0.5000000  -0.5000000   0.2500000), wk =   0.0625000
        k(   36) = (  -0.5000000  -0.5000000  -0.5000000), wk =   0.0312500

     Dense  grid:   185827 G-vectors     FFT dimensions: (  72,  72,  72)

     Dynamical RAM for                 wfc:       5.67 MB

     Dynamical RAM for     wfc (w. buffer):      22.68 MB

     Dynamical RAM for           str. fact:       1.13 MB

     Dynamical RAM for           local pot:       0.00 MB

     Dynamical RAM for          nlocal pot:       7.65 MB

     Dynamical RAM for                qrad:       6.59 MB

     Dynamical RAM for          rho,v,vnew:       1.80 MB

     Dynamical RAM for               rhoin:       0.60 MB

     Dynamical RAM for            rho*nmix:       4.54 MB

     Dynamical RAM for           G-vectors:       1.21 MB

     Dynamical RAM for          h,s,v(r/c):       2.08 MB

     Dynamical RAM for          <psi|beta>:       0.53 MB

     Dynamical RAM for                 psi:      22.68 MB

     Dynamical RAM for                hpsi:      22.68 MB

     Dynamical RAM for      wfcinit/wfcrot:      18.33 MB

     Estimated static dynamical RAM per process >      49.20 MB

     Estimated max dynamical RAM per process >      97.15 MB

     Estimated total dynamical RAM >      15.18 GB

     Initial potential from superposition of free atoms

     starting charge  271.99996, renormalised to  320.00000
     Starting wfcs are  240 randomized atomic wfcs

     total cpu time spent up to now is        4.4 secs

     Self-consistent Calculation

     iteration #  1     ecut=    50.00 Ry     beta= 0.70
     Davidson diagonalization with overlap
     ethr =  1.00E-02,  avg # of iterations =  3.0

     total cpu time spent up to now is        9.7 secs

     total energy              =   -2006.57347740 Ry
     Harris-Foulkes estimate   =   -2020.03462370 Ry
     estimated scf accuracy    <      19.70873450 Ry

     iteration #  2     ecut=    50.00 Ry     beta= 0.70
     Davidson diagonalization with overlap
     ethr =  6.16E-03,  avg # of iterations =  2.0

     total cpu time spent up to now is       14.2 secs

     total energy              =   -2010.34312414 Ry
     Harris-Foulkes estimate   =   -2011.76800055 Ry
     estimated scf accuracy    <       2.14008633 Ry

     iteration #  3     ecut=    50.00 Ry     beta= 0.70
     Davidson diagonalization with overlap
     ethr =  6.69E-04,  avg # of iterations =  3.7

     total cpu time spent up to now is       19.8 secs

     total energy              =   -2010.87314581 Ry
     Harris-Foulkes estimate   =   -2011.35625843 Ry
     estimated scf accuracy    <       1.05461219 Ry

     iteration #  4     ecut=    50.00 Ry     beta= 0.70
     Davidson diagonalization with overlap
     ethr =  3.30E-04,  avg # of iterations =  3.0

     total cpu time spent up to now is       24.4 secs

     total energy              =   -2011.09235607 Ry
     Harris-Foulkes estimate   =   -2011.10559727 Ry
     estimated scf accuracy    <       0.02239707 Ry

     iteration #  5     ecut=    50.00 Ry     beta= 0.70
     Davidson diagonalization with overlap
     ethr =  7.00E-06,  avg # of iterations =  4.4

     total cpu time spent up to now is       31.2 secs

     total energy              =   -2011.10317556 Ry
     Harris-Foulkes estimate   =   -2011.11605705 Ry
     estimated scf accuracy    <       0.03247035 Ry

     iteration #  6     ecut=    50.00 Ry     beta= 0.70
     Davidson diagonalization with overlap
     ethr =  7.00E-06,  avg # of iterations =  3.2

     total cpu time spent up to now is       36.0 secs

     total energy              =   -2011.10858913 Ry
     Harris-Foulkes estimate   =   -2011.10911233 Ry
     estimated scf accuracy    <       0.00103077 Ry

     iteration #  7     ecut=    50.00 Ry     beta= 0.70
     Davidson diagonalization with overlap
     ethr =  3.22E-07,  avg # of iterations =  4.0

     total cpu time spent up to now is       42.4 secs

     total energy              =   -2011.10889369 Ry
     Harris-Foulkes estimate   =   -2011.10910659 Ry
     estimated scf accuracy    <       0.00047732 Ry

     iteration #  8     ecut=    50.00 Ry     beta= 0.70
     Davidson diagonalization with overlap
     ethr =  1.49E-07,  avg # of iterations =  4.1

     total cpu time spent up to now is       47.7 secs

     total energy              =   -2011.10898864 Ry
     Harris-Foulkes estimate   =   -2011.10901369 Ry
     estimated scf accuracy    <       0.00005561 Ry

     iteration #  9     ecut=    50.00 Ry     beta= 0.70
     Davidson diagonalization with overlap
     ethr =  1.74E-08,  avg # of iterations =  3.6

     total cpu time spent up to now is       52.8 secs

     total energy              =   -2011.10900266 Ry
     Harris-Foulkes estimate   =   -2011.10900380 Ry
     estimated scf accuracy    <       0.00000293 Ry

     iteration # 10     ecut=    50.00 Ry     beta= 0.70
     Davidson diagonalization with overlap
     ethr =  9.16E-10,  avg # of iterations =  3.9

     total cpu time spent up to now is       58.6 secs

     total energy              =   -2011.10900357 Ry
     Harris-Foulkes estimate   =   -2011.10900365 Ry
     estimated scf accuracy    <       0.00000018 Ry

     iteration # 11     ecut=    50.00 Ry     beta= 0.70
     Davidson diagonalization with overlap
     ethr =  5.68E-11,  avg # of iterations =  3.7

     total cpu time spent up to now is       64.6 secs

     total energy              =   -2011.10900362 Ry
     Harris-Foulkes estimate   =   -2011.10900365 Ry
     estimated scf accuracy    <       0.00000005 Ry

     iteration # 12     ecut=    50.00 Ry     beta= 0.70
     Davidson diagonalization with overlap
     ethr =  1.71E-11,  avg # of iterations =  3.6

     total cpu time spent up to now is       70.0 secs

     total energy              =   -2011.10900363 Ry
     Harris-Foulkes estimate   =   -2011.10900364 Ry
     estimated scf accuracy    <       0.00000002 Ry

     iteration # 13     ecut=    50.00 Ry     beta= 0.70
     Davidson diagonalization with overlap
     ethr =  5.21E-12,  avg # of iterations =  3.9

     total cpu time spent up to now is       75.0 secs

     total energy              =   -2011.10900364 Ry
     Harris-Foulkes estimate   =   -2011.10900364 Ry
     estimated scf accuracy    <          3.1E-09 Ry

     iteration # 14     ecut=    50.00 Ry     beta= 0.70
     Davidson diagonalization with overlap
     ethr =  9.69E-13,  avg # of iterations =  3.6

     total cpu time spent up to now is       79.9 secs

     End of self-consistent calculation

          k = 0.0000 0.0000 0.0000 ( 23235 PWs)   bands (ev):

   -35.4824 -35.4777 -35.4759 -35.4755 -35.4713 -35.4710 -35.4691 -35.4646
   -29.0843 -29.0824 -29.0795 -29.0776 -16.3176 -16.2767 -16.2712 -16.1083
   -16.0873 -16.0845 -16.0845 -16.0787 -16.0684 -16.0622 -16.0030 -15.9864
   -15.9854 -15.9488 -15.9266 -15.8659 -15.7850 -15.7724 -15.7720 -15.7657
   -15.7655 -15.7622 -15.7584 -15.7561 -15.7561 -15.7495 -15.7410 -15.7323
   -10.9642 -10.9295 -10.9084 -10.9078 -10.8999 -10.8852 -10.8605 -10.8583
   -10.8304 -10.8257 -10.7471 -10.7444  -7.3388  -7.3307  -7.2731  -7.2367
    -7.1781  -7.1581  -7.1577  -7.1373  -6.8176  -6.8053  -6.7839  -6.7363
    -6.1421  -6.1312  -6.1111  -6.0853  -6.0815  -6.0680  -6.0629  -6.0564
    -5.8857  -5.8737  -5.8095  -5.8056  -1.8497  -1.7048  -1.5982  -1.4906
    -1.4847  -1.4487  -1.3982  -1.3959  -1.3921  -1.3533  -1.3273  -1.3060
     4.9065   5.0159   5.0174   5.0393   5.0976   5.1232   5.1388   5.1406
     5.1645   5.2422   5.2656   5.3409   5.3451   5.3821   5.5003   5.5456
     5.9518   6.0053   6.2100   6.3355   6.4044   6.4214   6.4933   6.5362
     6.5674   6.6151   6.6164   6.6945   6.7219   6.7469   6.8187   6.8895
     6.9700   6.9916   6.9979   7.1262   7.1339   7.1516   7.1647   7.1696
     7.1993   7.2204   7.2807   7.3182   7.3608   7.4813   7.5267   7.6470
     7.6908   7.7207   7.8125   7.8242   7.8269   7.8527   8.0159   8.0725
     8.1653   8.2490   8.2925   8.3229   8.3248   8.4490   8.4799   8.4873
     8.5007   8.5329   8.5545   8.6264   8.8540   8.8594   8.8766   8.8961

     occupation numbers 
     1.0000   1.0000   1.0000   1.0000   1.0000   1.0000   1.0000   1.0000
     1.0000   1.0000   1.0000   1.0000   1.0000   1.0000   1.0000   1.0000
     1.0000   1.0000   1.0000   1.0000   1.0000   1.0000   1.0000   1.0000
     1.0000   1.0000   1.0000   1.0000   1.0000   1.0000   1.0000   1.0000
     1.0000   1.0000   1.0000   1.0000   1.0000   1.0000   1.0000   1.0000
     1.0000   1.0000   1.0000   1.0000   1.0000   1.0000   1.0000   1.0000
     1.0000   1.0000   1.0000   1.0000   1.0000   1.0000   1.0000   1.0000
     1.0000   1.0000   1.0000   1.0000   1.0000   1.0000   1.0000   1.0000
     1.0000   1.0000   1.0000   1.0000   1.0000   1.0000   1.0000   1.0000
     1.0000   1.0000   1.0000   1.0000   1.0000   1.0000   1.0000   1.0000
     1.0000   1.0000   1.0000   1.0000   1.0000   1.0000   1.0000   1.0000
     1.0000   1.0000   1.0000   1.0000   1.0000   1.0000   1.0000   1.0000
     1.0000   1.0000   1.0000   1.0000   1.0000   1.0000   1.0000   1.0000
     1.0000   1.0000   1.0000   1.0000   1.0000   1.0000   1.0000   1.0000
     1.0000   1.0000   1.0000   1.0000   1.0000   1.0000   1.0000   1.0000
     1.0000   1.0000   1.0000   1.0000   1.0000   1.0000   1.0000   1.0000
     1.0000   1.0000   1.0000   1.0000   1.0000   1.0000   1.0000   1.0000
     1.0000   1.0000   1.0000   1.0000   1.0000   1.0000   1.0000   1.0000
     1.0000   1.0000   1.0000   1.0000   1.0000   1.0000   1.0000   1.0000
     1.0000   1.0000   1.0000   1.0000   1.0000   1.0000   1.0000   1.0000

          k = 0.0000 0.0000 0.2566 ( 23219 PWs)   bands (ev):

   -35.4814 -35.4768 -35.4765 -35.4749 -35.4719 -35.4704 -35.4701 -35.4656
   -29.0842 -29.0824 -29.0796 -29.0776 -16.2977 -16.2772 -16.2704 -16.1081
   -16.0783 -16.0702 -16.0605 -16.0551 -16.0525 -16.0414 -15.9945 -15.9893
   -15.9729 -15.9511 -15.9265 -15.8654 -15.8157 -15.8057 -15.8015 -15.7969
   -15.7710 -15.7642 -15.7639 -15.7636 -15.7574 -15.7531 -15.7490 -15.7404
   -10.9626 -10.9266 -10.9071 -10.9064 -10.8998 -10.8837 -10.8605 -10.8583
   -10.8301 -10.8254 -10.7471 -10.7444  -7.3537  -7.2768  -7.1811  -7.1806
    -7.1608  -7.0798  -7.0488  -6.9875  -6.8278  -6.8002  -6.7493  -6.7267
    -6.3127  -6.2489  -6.2269  -6.2158  -6.1466  -6.1225  -6.0729  -6.0507
    -5.8922  -5.8886  -5.8073  -5.7982  -1.8484  -1.7066  -1.5991  -1.4898
    -1.4855  -1.4497  -1.3988  -1.3959  -1.3919  -1.3547  -1.3289  -1.3061
     4.9599   5.0434   5.0817   5.0951   5.1251   5.1354   5.1829   5.2691
     5.2717   5.3854   5.4353   5.4477   5.4537   5.5012   5.5416   5.7234
     5.8755   5.9581   6.0438   6.1316   6.2188   6.3132   6.4335   6.5237
     6.5278   6.5339   6.5585   6.5908   6.6775   6.8041   6.8554   6.8744
     6.8799   6.9078   7.0552   7.0690   7.1536   7.2153   7.2585   7.2900
     7.3103   7.3249   7.3503   7.3665   7.5425   7.5707   7.5763   7.6812
     7.6833   7.6961   7.7750   7.7933   7.8279   7.8391   7.9464   8.0251
     8.0622   8.0904   8.1998   8.2234   8.2722   8.3426   8.3576   8.3821
     8.4246   8.4998   8.5754   8.6625   8.7849   8.7929   8.8411   8.8655

     occupation numbers 
     1.0000   1.0000   1.0000   1.0000   1.0000   1.0000   1.0000   1.0000
     1.0000   1.0000   1.0000   1.0000   1.0000   1.0000   1.0000   1.0000
     1.0000   1.0000   1.0000   1.0000   1.0000   1.0000   1.0000   1.0000
     1.0000   1.0000   1.0000   1.0000   1.0000   1.0000   1.0000   1.0000
     1.0000   1.0000   1.0000   1.0000   1.0000   1.0000   1.0000   1.0000
     1.0000   1.0000   1.0000   1.0000   1.0000   1.0000   1.0000   1.0000
     1.0000   1.0000   1.0000   1.0000   1.0000   1.0000   1.0000   1.0000
     1.0000   1.0000   1.0000   1.0000   1.0000   1.0000   1.0000   1.0000
     1.0000   1.0000   1.0000   1.0000   1.0000   1.0000   1.0000   1.0000
     1.0000   1.0000   1.0000   1.0000   1.0000   1.0000   1.0000   1.0000
     1.0000   1.0000   1.0000   1.0000   1.0000   1.0000   1.0000   1.0000
     1.0000   1.0000   1.0000   1.0000   1.0000   1.0000   1.0000   1.0000
     1.0000   1.0000   1.0000   1.0000   1.0000   1.0000   1.0000   1.0000
     1.0000   1.0000   1.0000   1.0000   1.0000   1.0000   1.0000   1.0000
     1.0000   1.0000   1.0000   1.0000   1.0000   1.0000   1.0000   1.0000
     1.0000   1.0000   1.0000   1.0000   1.0000   1.0000   1.0000   1.0000
     1.0000   1.0000   1.0000   1.0000   1.0000   1.0000   1.0000   1.0000
     1.0000   1.0000   1.0000   1.0000   1.0000   1.0000   1.0000   1.0000
     1.0000   1.0000   1.0000   1.0000   1.0000   1.0000   1.0000   1.0000
     1.0000   1.0000   1.0000   1.0000   1.0000   1.0000   1.0000   1.0000

          k = 0.0000 0.0000-0.5131 ( 23192 PWs)   bands (ev):

   -35.4795 -35.4784 -35.4749 -35.4738 -35.4730 -35.4720 -35.4685 -35.4675
   -29.0842 -29.0823 -29.0796 -29.0776 -16.2785 -16.2748 -16.2698 -16.1080
   -16.0779 -16.0716 -16.0593 -16.0287 -16.0225 -15.9925 -15.9545 -15.9522
   -15.9264 -15.9189 -15.9159 -15.9086 -15.9064 -15.8983 -15.8607 -15.8217
   -15.7684 -15.7662 -15.7619 -15.7615 -15.7598 -15.7550 -15.7506 -15.7449
   -10.9610 -10.9237 -10.9065 -10.9044 -10.8998 -10.8823 -10.8605 -10.8583
   -10.8298 -10.8250 -10.7471 -10.7444  -7.3817  -7.2284  -7.2059  -7.1410
    -7.0263  -6.9066  -6.8316  -6.7830  -6.7095  -6.6973  -6.6534  -6.6076
    -6.6075  -6.5920  -6.5667  -6.5215  -6.1656  -6.1065  -6.0901  -6.0325
    -5.8984  -5.8957  -5.8053  -5.7909  -1.8471  -1.7083  -1.5999  -1.4890
    -1.4863  -1.4505  -1.3995  -1.3959  -1.3916  -1.3561  -1.3306  -1.3062
     5.0358   5.1073   5.1248   5.1276   5.1288   5.2765   5.2828   5.3247
     5.4074   5.4163   5.4215   5.4533   5.4734   5.7423   5.7767   5.8048
     5.8280   6.0159   6.0256   6.0825   6.1016   6.2308   6.2963   6.4643
     6.5208   6.5652   6.5903   6.6551   6.7662   6.7815   6.7912   6.7961
     6.8024   6.9247   7.0420   7.0755   7.0937   7.2501   7.2594   7.3010
     7.3204   7.3512   7.3975   7.4039   7.4138   7.4764   7.5608   7.5643
     7.6154   7.6535   7.6612   7.7569   7.7867   7.9242   8.0320   8.0381
     8.0715   8.1517   8.1870   8.2093   8.2503   8.2942   8.3551   8.3833
     8.4367   8.4717   8.4981   8.5258   8.5369   8.6453   8.8321   8.8696

     occupation numbers 
     1.0000   1.0000   1.0000   1.0000   1.0000   1.0000   1.0000   1.0000
     1.0000   1.0000   1.0000   1.0000   1.0000   1.0000   1.0000   1.0000
     1.0000   1.0000   1.0000   1.0000   1.0000   1.0000   1.0000   1.0000
     1.0000   1.0000   1.0000   1.0000   1.0000   1.0000   1.0000   1.0000
     1.0000   1.0000   1.0000   1.0000   1.0000   1.0000   1.0000   1.0000
     1.0000   1.0000   1.0000   1.0000   1.0000   1.0000   1.0000   1.0000
     1.0000   1.0000   1.0000   1.0000   1.0000   1.0000   1.0000   1.0000
     1.0000   1.0000   1.0000   1.0000   1.0000   1.0000   1.0000   1.0000
     1.0000   1.0000   1.0000   1.0000   1.0000   1.0000   1.0000   1.0000
     1.0000   1.0000   1.0000   1.0000   1.0000   1.0000   1.0000   1.0000
     1.0000   1.0000   1.0000   1.0000   1.0000   1.0000   1.0000   1.0000
     1.0000   1.0000   1.0000   1.0000   1.0000   1.0000   1.0000   1.0000
     1.0000   1.0000   1.0000   1.0000   1.0000   1.0000   1.0000   1.0000
     1.0000   1.0000   1.0000   1.0000   1.0000   1.0000   1.0000   1.0000
     1.0000   1.0000   1.0000   1.0000   1.0000   1.0000   1.0000   1.0000
     1.0000   1.0000   1.0000   1.0000   1.0000   1.0000   1.0000   1.0000
     1.0000   1.0000   1.0000   1.0000   1.0000   1.0000   1.0000   1.0000
     1.0000   1.0000   1.0000   1.0000   1.0000   1.0000   1.0000   1.0000
     1.0000   1.0000   1.0000   1.0000   1.0000   1.0000   1.0000   1.0000
     1.0000   1.0000   1.0000   1.0000   1.0000   1.0000   1.0000   1.0000

          k = 0.0000 0.2556 0.0000 ( 23203 PWs)   bands (ev):

   -35.4815 -35.4768 -35.4768 -35.4746 -35.4722 -35.4701 -35.4700 -35.4656
   -29.0838 -29.0819 -29.0800 -29.0781 -16.3054 -16.2689 -16.2540 -16.1455
   -16.0835 -16.0805 -16.0800 -16.0356 -16.0296 -16.0287 -16.0013 -15.9854
   -15.9717 -15.9532 -15.9046 -15.8765 -15.8153 -15.8135 -15.8042 -15.8018
   -15.7797 -15.7735 -15.7634 -15.7573 -15.7569 -15.7508 -15.7392 -15.7334
   -10.9570 -10.9231 -10.9147 -10.9046 -10.8756 -10.8706 -10.8562 -10.8525
   -10.8371 -10.8296 -10.7707 -10.7662  -7.2872  -7.2775  -7.2674  -7.1563
    -7.1097  -7.0720  -7.0501  -7.0077  -6.8336  -6.7848  -6.7762  -6.7319
    -6.3082  -6.2799  -6.2488  -6.2358  -6.1242  -6.0851  -6.0750  -6.0574
    -5.8747  -5.8702  -5.8205  -5.8192  -1.7979  -1.6483  -1.5701  -1.5156
    -1.4784  -1.4672  -1.4283  -1.4171  -1.3840  -1.3659  -1.3515  -1.3498
     4.9815   4.9985   5.0887   5.0894   5.1021   5.1373   5.1574   5.3507
     5.3656   5.3870   5.3977   5.4449   5.4761   5.5522   5.5709   5.7341
     5.9174   5.9200   5.9708   6.0911   6.1430   6.2763   6.3991   6.6161
     6.6219   6.6344   6.6367   6.7168   6.7262   6.7871   6.7995   6.8586
     6.9267   6.9919   6.9976   7.0569   7.0994   7.1005   7.1771   7.1844
     7.2029   7.2597   7.4186   7.4511   7.4536   7.5599   7.6059   7.6329
     7.7451   7.7746   7.7786   7.7849   7.8047   7.8635   7.9119   7.9607
     8.0745   8.1023   8.1143   8.2436   8.2757   8.3516   8.3519   8.3585
     8.4855   8.5290   8.5458   8.6459   8.7205   8.7554   8.8811   8.9013

     occupation numbers 
     1.0000   1.0000   1.0000   1.0000   1.0000   1.0000   1.0000   1.0000
     1.0000   1.0000   1.0000   1.0000   1.0000   1.0000   1.0000   1.0000
     1.0000   1.0000   1.0000   1.0000   1.0000   1.0000   1.0000   1.0000
     1.0000   1.0000   1.0000   1.0000   1.0000   1.0000   1.0000   1.0000
     1.0000   1.0000   1.0000   1.0000   1.0000   1.0000   1.0000   1.0000
     1.0000   1.0000   1.0000   1.0000   1.0000   1.0000   1.0000   1.0000
     1.0000   1.0000   1.0000   1.0000   1.0000   1.0000   1.0000   1.0000
     1.0000   1.0000   1.0000   1.0000   1.0000   1.0000   1.0000   1.0000
     1.0000   1.0000   1.0000   1.0000   1.0000   1.0000   1.0000   1.0000
     1.0000   1.0000   1.0000   1.0000   1.0000   1.0000   1.0000   1.0000
     1.0000   1.0000   1.0000   1.0000   1.0000   1.0000   1.0000   1.0000
     1.0000   1.0000   1.0000   1.0000   1.0000   1.0000   1.0000   1.0000
     1.0000   1.0000   1.0000   1.0000   1.0000   1.0000   1.0000   1.0000
     1.0000   1.0000   1.0000   1.0000   1.0000   1.0000   1.0000   1.0000
     1.0000   1.0000   1.0000   1.0000   1.0000   1.0000   1.0000   1.0000
     1.0000   1.0000   1.0000   1.0000   1.0000   1.0000   1.0000   1.0000
     1.0000   1.0000   1.0000   1.0000   1.0000   1.0000   1.0000   1.0000
     1.0000   1.0000   1.0000   1.0000   1.0000   1.0000   1.0000   1.0000
     1.0000   1.0000   1.0000   1.0000   1.0000   1.0000   1.0000   1.0000
     1.0000   1.0000   1.0000   1.0000   1.0000   1.0000   1.0000   1.0000

          k = 0.0000 0.2556 0.2566 ( 23189 PWs)   bands (ev):

   -35.4805 -35.4759 -35.4758 -35.4756 -35.4713 -35.4711 -35.4710 -35.4665
   -29.0838 -29.0819 -29.0800 -29.0781 -16.2865 -16.2653 -16.2530 -16.1431
   -16.0518 -16.0512 -16.0439 -16.0353 -16.0290 -16.0261 -15.9928 -15.9812
   -15.9655 -15.9499 -15.9083 -15.8758 -15.8255 -15.8150 -15.8121 -15.8108
   -15.8075 -15.8022 -15.7981 -15.7820 -15.7606 -15.7543 -15.7467 -15.7415
   -10.9556 -10.9220 -10.9122 -10.9039 -10.8745 -10.8698 -10.8560 -10.8524
   -10.8367 -10.8293 -10.7705 -10.7660  -7.2398  -7.1697  -7.1486  -7.0917
    -7.0381  -7.0067  -7.0012  -6.9798  -6.8457  -6.7790  -6.7554  -6.7209
    -6.3081  -6.3081  -6.2950  -6.2534  -6.2515  -6.2369  -6.2176  -6.2071
    -5.8802  -5.8770  -5.8193  -5.8124  -1.7971  -1.6494  -1.5707  -1.5161
    -1.4788  -1.4666  -1.4287  -1.4169  -1.3844  -1.3661  -1.3527  -1.3511
     5.0053   5.0275   5.1125   5.2327   5.2540   5.2845   5.2985   5.3835
     5.4260   5.4616   5.4764   5.4944   5.5342   5.6683   5.7384   5.7528
     5.8967   5.9429   6.0032   6.1450   6.1546   6.1686   6.2225   6.3479
     6.4112   6.4959   6.5234   6.6249   6.6768   6.7312   6.7767   6.8269
     6.8409   6.8766   6.9859   6.9898   7.1179   7.2291   7.3371   7.3623
     7.3685   7.4222   7.4546   7.5068   7.5396   7.5765   7.5889   7.6753
     7.7411   7.8034   7.8117   7.8296   7.8565   7.8660   7.8685   7.9428
     7.9454   7.9831   8.0287   8.0768   8.1725   8.2065   8.2649   8.2912
     8.3661   8.5340   8.5862   8.6700   8.7108   8.7446   8.7865   8.8094

     occupation numbers 
     1.0000   1.0000   1.0000   1.0000   1.0000   1.0000   1.0000   1.0000
     1.0000   1.0000   1.0000   1.0000   1.0000   1.0000   1.0000   1.0000
     1.0000   1.0000   1.0000   1.0000   1.0000   1.0000   1.0000   1.0000
     1.0000   1.0000   1.0000   1.0000   1.0000   1.0000   1.0000   1.0000
     1.0000   1.0000   1.0000   1.0000   1.0000   1.0000   1.0000   1.0000
     1.0000   1.0000   1.0000   1.0000   1.0000   1.0000   1.0000   1.0000
     1.0000   1.0000   1.0000   1.0000   1.0000   1.0000   1.0000   1.0000
     1.0000   1.0000   1.0000   1.0000   1.0000   1.0000   1.0000   1.0000
     1.0000   1.0000   1.0000   1.0000   1.0000   1.0000   1.0000   1.0000
     1.0000   1.0000   1.0000   1.0000   1.0000   1.0000   1.0000   1.0000
     1.0000   1.0000   1.0000   1.0000   1.0000   1.0000   1.0000   1.0000
     1.0000   1.0000   1.0000   1.0000   1.0000   1.0000   1.0000   1.0000
     1.0000   1.0000   1.0000   1.0000   1.0000   1.0000   1.0000   1.0000
     1.0000   1.0000   1.0000   1.0000   1.0000   1.0000   1.0000   1.0000
     1.0000   1.0000   1.0000   1.0000   1.0000   1.0000   1.0000   1.0000
     1.0000   1.0000   1.0000   1.0000   1.0000   1.0000   1.0000   1.0000
     1.0000   1.0000   1.0000   1.0000   1.0000   1.0000   1.0000   1.0000
     1.0000   1.0000   1.0000   1.0000   1.0000   1.0000   1.0000   1.0000
     1.0000   1.0000   1.0000   1.0000   1.0000   1.0000   1.0000   1.0000
     1.0000   1.0000   1.0000   1.0000   1.0000   1.0000   1.0000   1.0000

          k = 0.0000 0.2556-0.5131 ( 23192 PWs)   bands (ev):

   -35.4786 -35.4775 -35.4740 -35.4740 -35.4730 -35.4729 -35.4694 -35.4684
   -29.0838 -29.0819 -29.0800 -29.0781 -16.2665 -16.2618 -16.2522 -16.1416
   -16.0364 -16.0356 -16.0282 -16.0256 -16.0157 -15.9587 -15.9555 -15.9543
   -15.9523 -15.9186 -15.9146 -15.9078 -15.8984 -15.8699 -15.8614 -15.8570
   -15.8177 -15.8095 -15.8079 -15.7816 -15.7581 -15.7522 -15.7518 -15.7461
   -10.9541 -10.9209 -10.9099 -10.9031 -10.8733 -10.8690 -10.8559 -10.8523
   -10.8364 -10.8290 -10.7703 -10.7658  -7.2507  -7.0860  -7.0552  -7.0102
    -6.9938  -6.8673  -6.8575  -6.7940  -6.6874  -6.6767  -6.6756  -6.6080
    -6.5988  -6.5946  -6.5844  -6.5408  -6.3229  -6.2808  -6.2552  -6.2022
    -5.8851  -5.8803  -5.8181  -5.8061  -1.7962  -1.6505  -1.5713  -1.5166
    -1.4791  -1.4661  -1.4291  -1.4166  -1.3847  -1.3662  -1.3538  -1.3523
     5.0448   5.1257   5.1439   5.2750   5.3165   5.3209   5.3971   5.4469
     5.4754   5.6164   5.6264   5.6394   5.7020   5.7077   5.7804   5.8346
     5.9845   5.9852   6.0601   6.0658   6.0900   6.1030   6.1342   6.2120
     6.3658   6.3721   6.5772   6.6665   6.6799   6.7016   6.7515   6.7664
     6.7914   6.8575   6.9062   7.0344   7.1561   7.2564   7.2777   7.2873
     7.2942   7.3610   7.3954   7.4899   7.4972   7.5021   7.5100   7.6248
     7.7256   7.7588   7.7974   7.8071   7.8467   7.8767   7.9491   7.9706
     8.0299   8.0481   8.0706   8.0770   8.0852   8.0920   8.3009   8.3987
     8.4098   8.4846   8.5220   8.5429   8.5433   8.6549   8.7319   8.7457

     occupation numbers 
     1.0000   1.0000   1.0000   1.0000   1.0000   1.0000   1.0000   1.0000
     1.0000   1.0000   1.0000   1.0000   1.0000   1.0000   1.0000   1.0000
     1.0000   1.0000   1.0000   1.0000   1.0000   1.0000   1.0000   1.0000
     1.0000   1.0000   1.0000   1.0000   1.0000   1.0000   1.0000   1.0000
     1.0000   1.0000   1.0000   1.0000   1.0000   1.0000   1.0000   1.0000
     1.0000   1.0000   1.0000   1.0000   1.0000   1.0000   1.0000   1.0000
     1.0000   1.0000   1.0000   1.0000   1.0000   1.0000   1.0000   1.0000
     1.0000   1.0000   1.0000   1.0000   1.0000   1.0000   1.0000   1.0000
     1.0000   1.0000   1.0000   1.0000   1.0000   1.0000   1.0000   1.0000
     1.0000   1.0000   1.0000   1.0000   1.0000   1.0000   1.0000   1.0000
     1.0000   1.0000   1.0000   1.0000   1.0000   1.0000   1.0000   1.0000
     1.0000   1.0000   1.0000   1.0000   1.0000   1.0000   1.0000   1.0000
     1.0000   1.0000   1.0000   1.0000   1.0000   1.0000   1.0000   1.0000
     1.0000   1.0000   1.0000   1.0000   1.0000   1.0000   1.0000   1.0000
     1.0000   1.0000   1.0000   1.0000   1.0000   1.0000   1.0000   1.0000
     1.0000   1.0000   1.0000   1.0000   1.0000   1.0000   1.0000   1.0000
     1.0000   1.0000   1.0000   1.0000   1.0000   1.0000   1.0000   1.0000
     1.0000   1.0000   1.0000   1.0000   1.0000   1.0000   1.0000   1.0000
     1.0000   1.0000   1.0000   1.0000   1.0000   1.0000   1.0000   1.0000
     1.0000   1.0000   1.0000   1.0000   1.0000   1.0000   1.0000   1.0000

          k = 0.0000 0.2556-0.2566 ( 23189 PWs)   bands (ev):

   -35.4805 -35.4759 -35.4758 -35.4756 -35.4713 -35.4711 -35.4710 -35.4665
   -29.0838 -29.0819 -29.0800 -29.0781 -16.2865 -16.2653 -16.2530 -16.1431
   -16.0518 -16.0512 -16.0439 -16.0353 -16.0290 -16.0261 -15.9928 -15.9812
   -15.9655 -15.9499 -15.9083 -15.8758 -15.8255 -15.8150 -15.8121 -15.8108
   -15.8075 -15.8022 -15.7981 -15.7820 -15.7606 -15.7543 -15.7467 -15.7415
   -10.9556 -10.9220 -10.9122 -10.9039 -10.8745 -10.8698 -10.8560 -10.8524
   -10.8367 -10.8293 -10.7705 -10.7660  -7.2398  -7.1697  -7.1486  -7.0917
    -7.0381  -7.0067  -7.0012  -6.9798  -6.8457  -6.7790  -6.7554  -6.7209
    -6.3081  -6.3081  -6.2950  -6.2534  -6.2515  -6.2369  -6.2176  -6.2071
    -5.8802  -5.8770  -5.8193  -5.8124  -1.7971  -1.6494  -1.5707  -1.5161
    -1.4788  -1.4666  -1.4287  -1.4169  -1.3844  -1.3661  -1.3527  -1.3511
     5.0053   5.0275   5.1125   5.2327   5.2540   5.2845   5.2985   5.3835
     5.4260   5.4616   5.4764   5.4944   5.5342   5.6683   5.7384   5.7528
     5.8967   5.9429   6.0032   6.1450   6.1546   6.1686   6.2225   6.3479
     6.4112   6.4959   6.5234   6.6249   6.6768   6.7312   6.7767   6.8269
     6.8409   6.8766   6.9859   6.9898   7.1179   7.2291   7.3371   7.3623
     7.3685   7.4222   7.4546   7.5068   7.5396   7.5765   7.5889   7.6753
     7.7411   7.8034   7.8117   7.8296   7.8565   7.8660   7.8685   7.9428
     7.9454   7.9831   8.0287   8.0768   8.1725   8.2065   8.2649   8.2912
     8.3661   8.5340   8.5862   8.6700   8.7108   8.7446   8.7865   8.8094

     occupation numbers 
     1.0000   1.0000   1.0000   1.0000   1.0000   1.0000   1.0000   1.0000
     1.0000   1.0000   1.0000   1.0000   1.0000   1.0000   1.0000   1.0000
     1.0000   1.0000   1.0000   1.0000   1.0000   1.0000   1.0000   1.0000
     1.0000   1.0000   1.0000   1.0000   1.0000   1.0000   1.0000   1.0000
     1.0000   1.0000   1.0000   1.0000   1.0000   1.0000   1.0000   1.0000
     1.0000   1.0000   1.0000   1.0000   1.0000   1.0000   1.0000   1.0000
     1.0000   1.0000   1.0000   1.0000   1.0000   1.0000   1.0000   1.0000
     1.0000   1.0000   1.0000   1.0000   1.0000   1.0000   1.0000   1.0000
     1.0000   1.0000   1.0000   1.0000   1.0000   1.0000   1.0000   1.0000
     1.0000   1.0000   1.0000   1.0000   1.0000   1.0000   1.0000   1.0000
     1.0000   1.0000   1.0000   1.0000   1.0000   1.0000   1.0000   1.0000
     1.0000   1.0000   1.0000   1.0000   1.0000   1.0000   1.0000   1.0000
     1.0000   1.0000   1.0000   1.0000   1.0000   1.0000   1.0000   1.0000
     1.0000   1.0000   1.0000   1.0000   1.0000   1.0000   1.0000   1.0000
     1.0000   1.0000   1.0000   1.0000   1.0000   1.0000   1.0000   1.0000
     1.0000   1.0000   1.0000   1.0000   1.0000   1.0000   1.0000   1.0000
     1.0000   1.0000   1.0000   1.0000   1.0000   1.0000   1.0000   1.0000
     1.0000   1.0000   1.0000   1.0000   1.0000   1.0000   1.0000   1.0000
     1.0000   1.0000   1.0000   1.0000   1.0000   1.0000   1.0000   1.0000
     1.0000   1.0000   1.0000   1.0000   1.0000   1.0000   1.0000   1.0000

          k = 0.0000-0.5112 0.0000 ( 23200 PWs)   bands (ev):

   -35.4791 -35.4791 -35.4745 -35.4745 -35.4724 -35.4723 -35.4678 -35.4678
   -29.0832 -29.0813 -29.0806 -29.0787 -16.2801 -16.2774 -16.2084 -16.2056
   -16.0813 -16.0812 -16.0337 -16.0332 -15.9983 -15.9981 -15.9283 -15.9274
   -15.9257 -15.9248 -15.9147 -15.9138 -15.9080 -15.9062 -15.8572 -15.8566
   -15.7771 -15.7771 -15.7603 -15.7602 -15.7539 -15.7538 -15.7363 -15.7362
   -10.9416 -10.9396 -10.9016 -10.9001 -10.8561 -10.8539 -10.8412 -10.8390
   -10.8230 -10.8227 -10.8184 -10.8176  -7.2645  -7.2633  -7.2062  -7.2057
    -6.9013  -6.9006  -6.8199  -6.8190  -6.7014  -6.7007  -6.6337  -6.6333
    -6.6328  -6.6321  -6.5949  -6.5944  -6.0860  -6.0852  -6.0850  -6.0847
    -5.8494  -5.8491  -5.8480  -5.8476  -1.6655  -1.6628  -1.5108  -1.5068
    -1.5028  -1.4975  -1.4558  -1.4538  -1.4117  -1.4077  -1.3636  -1.3594
     5.0843   5.0864   5.1284   5.1284   5.1396   5.1397   5.3547   5.3569
     5.3935   5.3949   5.5041   5.5052   5.6602   5.6620   5.8108   5.8108
     5.8685   5.8712   6.0833   6.0837   6.1724   6.1730   6.4920   6.4933
     6.5829   6.5836   6.6112   6.6143   6.7467   6.7481   6.9103   6.9107
     6.9115   6.9117   7.0032   7.0048   7.0852   7.0854   7.1506   7.1510
     7.2782   7.2794   7.3562   7.3572   7.4717   7.4721   7.5654   7.5654
     7.5690   7.5697   7.7399   7.7432   7.8279   7.8284   8.0107   8.0129
     8.0814   8.0836   8.1829   8.1830   8.3288   8.3290   8.3810   8.3812
     8.4345   8.4362   8.4387   8.4400   8.5885   8.5899   8.8918   8.8919

     occupation numbers 
     1.0000   1.0000   1.0000   1.0000   1.0000   1.0000   1.0000   1.0000
     1.0000   1.0000   1.0000   1.0000   1.0000   1.0000   1.0000   1.0000
     1.0000   1.0000   1.0000   1.0000   1.0000   1.0000   1.0000   1.0000
     1.0000   1.0000   1.0000   1.0000   1.0000   1.0000   1.0000   1.0000
     1.0000   1.0000   1.0000   1.0000   1.0000   1.0000   1.0000   1.0000
     1.0000   1.0000   1.0000   1.0000   1.0000   1.0000   1.0000   1.0000
     1.0000   1.0000   1.0000   1.0000   1.0000   1.0000   1.0000   1.0000
     1.0000   1.0000   1.0000   1.0000   1.0000   1.0000   1.0000   1.0000
     1.0000   1.0000   1.0000   1.0000   1.0000   1.0000   1.0000   1.0000
     1.0000   1.0000   1.0000   1.0000   1.0000   1.0000   1.0000   1.0000
     1.0000   1.0000   1.0000   1.0000   1.0000   1.0000   1.0000   1.0000
     1.0000   1.0000   1.0000   1.0000   1.0000   1.0000   1.0000   1.0000
     1.0000   1.0000   1.0000   1.0000   1.0000   1.0000   1.0000   1.0000
     1.0000   1.0000   1.0000   1.0000   1.0000   1.0000   1.0000   1.0000
     1.0000   1.0000   1.0000   1.0000   1.0000   1.0000   1.0000   1.0000
     1.0000   1.0000   1.0000   1.0000   1.0000   1.0000   1.0000   1.0000
     1.0000   1.0000   1.0000   1.0000   1.0000   1.0000   1.0000   1.0000
     1.0000   1.0000   1.0000   1.0000   1.0000   1.0000   1.0000   1.0000
     1.0000   1.0000   1.0000   1.0000   1.0000   1.0000   1.0000   1.0000
     1.0000   1.0000   1.0000   1.0000   1.0000   1.0000   1.0000   1.0000

          k = 0.0000-0.5112 0.2566 ( 23188 PWs)   bands (ev):

   -35.4782 -35.4782 -35.4736 -35.4736 -35.4733 -35.4733 -35.4688 -35.4687
   -29.0832 -29.0813 -29.0806 -29.0787 -16.2665 -16.2634 -16.2069 -16.2040
   -16.0506 -16.0505 -16.0113 -16.0111 -15.9898 -15.9897 -15.9293 -15.9283
   -15.9244 -15.9236 -15.9168 -15.9160 -15.9058 -15.9042 -15.8717 -15.8716
   -15.8013 -15.8012 -15.7982 -15.7976 -15.7574 -15.7573 -15.7441 -15.7440
   -10.9403 -10.9383 -10.9004 -10.8989 -10.8554 -10.8532 -10.8410 -10.8388
   -10.8225 -10.8221 -10.8178 -10.8170  -7.1410  -7.1401  -7.0599  -7.0595
    -6.9244  -6.9235  -6.7896  -6.7893  -6.6923  -6.6914  -6.6437  -6.6424
    -6.6274  -6.6270  -6.5903  -6.5895  -6.2540  -6.2535  -6.2493  -6.2484
    -5.8516  -5.8513  -5.8447  -5.8445  -1.6654  -1.6627  -1.5112  -1.5073
    -1.5028  -1.4977  -1.4556  -1.4536  -1.4119  -1.4079  -1.3645  -1.3604
     5.0635   5.0651   5.2728   5.2737   5.3752   5.3764   5.3904   5.3908
     5.4773   5.4796   5.5713   5.5715   5.6561   5.6570   5.8741   5.8747
     6.0601   6.0604   6.0686   6.0709   6.1778   6.1786   6.2356   6.2361
     6.4980   6.4988   6.5468   6.5489   6.6323   6.6335   6.6845   6.6847
     6.8868   6.8883   6.9295   6.9301   7.0632   7.0639   7.2232   7.2254
     7.3745   7.3751   7.4612   7.4619   7.5137   7.5142   7.5828   7.5840
     7.7108   7.7120   7.8210   7.8212   7.8556   7.8563   7.9225   7.9226
     8.0672   8.0684   8.0735   8.0745   8.0933   8.0949   8.3351   8.3364
     8.4330   8.4349   8.4449   8.4462   8.6229   8.6239   8.7938   8.7940

     occupation numbers 
     1.0000   1.0000   1.0000   1.0000   1.0000   1.0000   1.0000   1.0000
     1.0000   1.0000   1.0000   1.0000   1.0000   1.0000   1.0000   1.0000
     1.0000   1.0000   1.0000   1.0000   1.0000   1.0000   1.0000   1.0000
     1.0000   1.0000   1.0000   1.0000   1.0000   1.0000   1.0000   1.0000
     1.0000   1.0000   1.0000   1.0000   1.0000   1.0000   1.0000   1.0000
     1.0000   1.0000   1.0000   1.0000   1.0000   1.0000   1.0000   1.0000
     1.0000   1.0000   1.0000   1.0000   1.0000   1.0000   1.0000   1.0000
     1.0000   1.0000   1.0000   1.0000   1.0000   1.0000   1.0000   1.0000
     1.0000   1.0000   1.0000   1.0000   1.0000   1.0000   1.0000   1.0000
     1.0000   1.0000   1.0000   1.0000   1.0000   1.0000   1.0000   1.0000
     1.0000   1.0000   1.0000   1.0000   1.0000   1.0000   1.0000   1.0000
     1.0000   1.0000   1.0000   1.0000   1.0000   1.0000   1.0000   1.0000
     1.0000   1.0000   1.0000   1.0000   1.0000   1.0000   1.0000   1.0000
     1.0000   1.0000   1.0000   1.0000   1.0000   1.0000   1.0000   1.0000
     1.0000   1.0000   1.0000   1.0000   1.0000   1.0000   1.0000   1.0000
     1.0000   1.0000   1.0000   1.0000   1.0000   1.0000   1.0000   1.0000
     1.0000   1.0000   1.0000   1.0000   1.0000   1.0000   1.0000   1.0000
     1.0000   1.0000   1.0000   1.0000   1.0000   1.0000   1.0000   1.0000
     1.0000   1.0000   1.0000   1.0000   1.0000   1.0000   1.0000   1.0000
     1.0000   1.0000   1.0000   1.0000   1.0000   1.0000   1.0000   1.0000

          k = 0.0000-0.5112-0.5131 ( 23284 PWs)   bands (ev):

   -35.4763 -35.4763 -35.4752 -35.4752 -35.4717 -35.4717 -35.4707 -35.4706
   -29.0832 -29.0813 -29.0806 -29.0787 -16.2530 -16.2496 -16.2057 -16.2027
   -16.0275 -16.0274 -15.9551 -15.9550 -15.9299 -15.9293 -15.9290 -15.9286
   -15.9281 -15.9272 -15.9207 -15.9197 -15.9154 -15.9151 -15.9111 -15.9110
   -15.8913 -15.8905 -15.8143 -15.8132 -15.7549 -15.7548 -15.7491 -15.7490
   -10.9391 -10.9371 -10.8993 -10.8978 -10.8548 -10.8525 -10.8407 -10.8386
   -10.8219 -10.8215 -10.8173 -10.8164  -6.9988  -6.9977  -6.9255  -6.9248
    -6.7871  -6.7866  -6.6798  -6.6784  -6.6749  -6.6746  -6.6299  -6.6284
    -6.6070  -6.6069  -6.5842  -6.5830  -6.5770  -6.5761  -6.5537  -6.5530
    -5.8523  -5.8517  -5.8434  -5.8429  -1.6653  -1.6625  -1.5115  -1.5075
    -1.5033  -1.4980  -1.4555  -1.4535  -1.4121  -1.4081  -1.3655  -1.3613
     5.0749   5.0763   5.2882   5.2898   5.5282   5.5283   5.5824   5.5829
     5.6402   5.6418   5.7019   5.7021   5.7586   5.7592   5.8209   5.8211
     6.0403   6.0422   6.0508   6.0524   6.1884   6.1887   6.2155   6.2168
     6.2873   6.2892   6.5039   6.5052   6.6567   6.6582   6.7198   6.7212
     6.9147   6.9154   6.9698   6.9701   6.9781   6.9796   7.0509   7.0516
     7.3007   7.3031   7.3691   7.3705   7.4584   7.4585   7.5814   7.5827
     7.7472   7.7479   7.8259   7.8264   7.8292   7.8312   7.8954   7.8969
     7.9925   7.9932   8.0852   8.0878   8.2584   8.2601   8.4091   8.4101
     8.4153   8.4170   8.4584   8.4596   8.5301   8.5308   8.5974   8.5984

     occupation numbers 
     1.0000   1.0000   1.0000   1.0000   1.0000   1.0000   1.0000   1.0000
     1.0000   1.0000   1.0000   1.0000   1.0000   1.0000   1.0000   1.0000
     1.0000   1.0000   1.0000   1.0000   1.0000   1.0000   1.0000   1.0000
     1.0000   1.0000   1.0000   1.0000   1.0000   1.0000   1.0000   1.0000
     1.0000   1.0000   1.0000   1.0000   1.0000   1.0000   1.0000   1.0000
     1.0000   1.0000   1.0000   1.0000   1.0000   1.0000   1.0000   1.0000
     1.0000   1.0000   1.0000   1.0000   1.0000   1.0000   1.0000   1.0000
     1.0000   1.0000   1.0000   1.0000   1.0000   1.0000   1.0000   1.0000
     1.0000   1.0000   1.0000   1.0000   1.0000   1.0000   1.0000   1.0000
     1.0000   1.0000   1.0000   1.0000   1.0000   1.0000   1.0000   1.0000
     1.0000   1.0000   1.0000   1.0000   1.0000   1.0000   1.0000   1.0000
     1.0000   1.0000   1.0000   1.0000   1.0000   1.0000   1.0000   1.0000
     1.0000   1.0000   1.0000   1.0000   1.0000   1.0000   1.0000   1.0000
     1.0000   1.0000   1.0000   1.0000   1.0000   1.0000   1.0000   1.0000
     1.0000   1.0000   1.0000   1.0000   1.0000   1.0000   1.0000   1.0000
     1.0000   1.0000   1.0000   1.0000   1.0000   1.0000   1.0000   1.0000
     1.0000   1.0000   1.0000   1.0000   1.0000   1.0000   1.0000   1.0000
     1.0000   1.0000   1.0000   1.0000   1.0000   1.0000   1.0000   1.0000
     1.0000   1.0000   1.0000   1.0000   1.0000   1.0000   1.0000   1.0000
     1.0000   1.0000   1.0000   1.0000   1.0000   1.0000   1.0000   1.0000

          k = 0.2500 0.0000 0.0000 ( 23236 PWs)   bands (ev):

   -35.4817 -35.4784 -35.4752 -35.4749 -35.4720 -35.4716 -35.4685 -35.4653
   -29.0840 -29.0827 -29.0793 -29.0779 -16.3077 -16.2716 -16.2613 -16.1580
   -16.0841 -16.0836 -16.0772 -16.0718 -16.0699 -16.0172 -15.9707 -15.9695
   -15.9563 -15.9534 -15.9372 -15.8519 -15.8072 -15.7935 -15.7927 -15.7831
   -15.7714 -15.7665 -15.7613 -15.7591 -15.7570 -15.7549 -15.7501 -15.7463
   -10.9561 -10.9260 -10.9162 -10.9112 -10.8941 -10.8809 -10.8663 -10.8620
   -10.8297 -10.8264 -10.7467 -10.7448  -7.3293  -7.3177  -7.2387  -7.2132
    -7.1750  -7.1634  -7.1609  -7.1491  -6.6918  -6.6797  -6.6789  -6.6250
    -6.1424  -6.1278  -6.1136  -6.1031  -6.0896  -6.0821  -6.0662  -6.0619
    -6.0372  -5.9809  -5.9688  -5.9529  -1.7895  -1.6563  -1.5824  -1.5063
    -1.4806  -1.4665  -1.4550  -1.4079  -1.3887  -1.3826  -1.3383  -1.3194
     5.0115   5.0168   5.0185   5.1265   5.1365   5.1384   5.1596   5.2066
     5.2287   5.2464   5.2621   5.4693   5.6194   5.6396   5.7181   5.8486
     5.9933   6.1215   6.1812   6.2144   6.2405   6.3782   6.4041   6.4139
     6.4384   6.5079   6.5791   6.6249   6.7249   6.7780   6.7986   6.8822
     6.9875   7.0144   7.0237   7.0370   7.0391   7.0399   7.0997   7.1195
     7.2042   7.2186   7.2677   7.4402   7.4555   7.5079   7.6500   7.6516
     7.6566   7.7089   7.8214   7.8362   7.9081   7.9371   8.0304   8.0557
     8.1297   8.1304   8.1532   8.2357   8.2420   8.2556   8.3774   8.3879
     8.4591   8.4708   8.4730   8.5387   8.7373   8.7549   8.7730   8.7752

     occupation numbers 
     1.0000   1.0000   1.0000   1.0000   1.0000   1.0000   1.0000   1.0000
     1.0000   1.0000   1.0000   1.0000   1.0000   1.0000   1.0000   1.0000
     1.0000   1.0000   1.0000   1.0000   1.0000   1.0000   1.0000   1.0000
     1.0000   1.0000   1.0000   1.0000   1.0000   1.0000   1.0000   1.0000
     1.0000   1.0000   1.0000   1.0000   1.0000   1.0000   1.0000   1.0000
     1.0000   1.0000   1.0000   1.0000   1.0000   1.0000   1.0000   1.0000
     1.0000   1.0000   1.0000   1.0000   1.0000   1.0000   1.0000   1.0000
     1.0000   1.0000   1.0000   1.0000   1.0000   1.0000   1.0000   1.0000
     1.0000   1.0000   1.0000   1.0000   1.0000   1.0000   1.0000   1.0000
     1.0000   1.0000   1.0000   1.0000   1.0000   1.0000   1.0000   1.0000
     1.0000   1.0000   1.0000   1.0000   1.0000   1.0000   1.0000   1.0000
     1.0000   1.0000   1.0000   1.0000   1.0000   1.0000   1.0000   1.0000
     1.0000   1.0000   1.0000   1.0000   1.0000   1.0000   1.0000   1.0000
     1.0000   1.0000   1.0000   1.0000   1.0000   1.0000   1.0000   1.0000
     1.0000   1.0000   1.0000   1.0000   1.0000   1.0000   1.0000   1.0000
     1.0000   1.0000   1.0000   1.0000   1.0000   1.0000   1.0000   1.0000
     1.0000   1.0000   1.0000   1.0000   1.0000   1.0000   1.0000   1.0000
     1.0000   1.0000   1.0000   1.0000   1.0000   1.0000   1.0000   1.0000
     1.0000   1.0000   1.0000   1.0000   1.0000   1.0000   1.0000   1.0000
     1.0000   1.0000   1.0000   1.0000   1.0000   1.0000   1.0000   1.0000

          k = 0.2500 0.0000 0.2566 ( 23253 PWs)   bands (ev):

   -35.4808 -35.4775 -35.4758 -35.4743 -35.4726 -35.4710 -35.4695 -35.4663
   -29.0840 -29.0826 -29.0793 -29.0779 -16.2892 -16.2668 -16.2616 -16.1578
   -16.0771 -16.0712 -16.0470 -16.0412 -16.0408 -16.0162 -15.9662 -15.9653
   -15.9563 -15.9489 -15.9370 -15.8553 -15.8228 -15.8221 -15.7999 -15.7972
   -15.7894 -15.7845 -15.7700 -15.7695 -15.7671 -15.7652 -15.7627 -15.7583
   -10.9546 -10.9233 -10.9154 -10.9091 -10.8941 -10.8797 -10.8663 -10.8618
   -10.8294 -10.8261 -10.7467 -10.7448  -7.3191  -7.2682  -7.1868  -7.1802
    -7.1117  -7.0700  -7.0507  -7.0004  -6.7010  -6.6902  -6.6486  -6.6191
    -6.3129  -6.2555  -6.2335  -6.2201  -6.1410  -6.1225  -6.0728  -6.0557
    -6.0369  -6.0269  -5.9633  -5.9520  -1.7880  -1.6581  -1.5827  -1.5054
    -1.4813  -1.4658  -1.4558  -1.4094  -1.3893  -1.3826  -1.3397  -1.3195
     5.0837   5.0858   5.0925   5.1272   5.1287   5.1320   5.2970   5.3802
     5.4063   5.4492   5.4525   5.5001   5.6619   5.6936   5.8162   5.8572
     5.9541   5.9803   6.1026   6.2445   6.2561   6.2822   6.3037   6.4021
     6.4068   6.4772   6.5005   6.5810   6.5994   6.6175   6.6374   6.7636
     6.8851   6.8868   6.9944   7.0797   7.1195   7.1370   7.1426   7.2099
     7.2221   7.3772   7.3935   7.5309   7.5595   7.5777   7.6432   7.7640
     7.7824   7.7983   7.8101   7.8218   7.9051   7.9218   7.9497   8.0042
     8.0167   8.0386   8.1130   8.1874   8.1897   8.2122   8.3148   8.3217
     8.3238   8.3638   8.3694   8.4148   8.6881   8.7036   8.7301   8.7560

     occupation numbers 
     1.0000   1.0000   1.0000   1.0000   1.0000   1.0000   1.0000   1.0000
     1.0000   1.0000   1.0000   1.0000   1.0000   1.0000   1.0000   1.0000
     1.0000   1.0000   1.0000   1.0000   1.0000   1.0000   1.0000   1.0000
     1.0000   1.0000   1.0000   1.0000   1.0000   1.0000   1.0000   1.0000
     1.0000   1.0000   1.0000   1.0000   1.0000   1.0000   1.0000   1.0000
     1.0000   1.0000   1.0000   1.0000   1.0000   1.0000   1.0000   1.0000
     1.0000   1.0000   1.0000   1.0000   1.0000   1.0000   1.0000   1.0000
     1.0000   1.0000   1.0000   1.0000   1.0000   1.0000   1.0000   1.0000
     1.0000   1.0000   1.0000   1.0000   1.0000   1.0000   1.0000   1.0000
     1.0000   1.0000   1.0000   1.0000   1.0000   1.0000   1.0000   1.0000
     1.0000   1.0000   1.0000   1.0000   1.0000   1.0000   1.0000   1.0000
     1.0000   1.0000   1.0000   1.0000   1.0000   1.0000   1.0000   1.0000
     1.0000   1.0000   1.0000   1.0000   1.0000   1.0000   1.0000   1.0000
     1.0000   1.0000   1.0000   1.0000   1.0000   1.0000   1.0000   1.0000
     1.0000   1.0000   1.0000   1.0000   1.0000   1.0000   1.0000   1.0000
     1.0000   1.0000   1.0000   1.0000   1.0000   1.0000   1.0000   1.0000
     1.0000   1.0000   1.0000   1.0000   1.0000   1.0000   1.0000   1.0000
     1.0000   1.0000   1.0000   1.0000   1.0000   1.0000   1.0000   1.0000
     1.0000   1.0000   1.0000   1.0000   1.0000   1.0000   1.0000   1.0000
     1.0000   1.0000   1.0000   1.0000   1.0000   1.0000   1.0000   1.0000

          k = 0.2500 0.0000-0.5131 ( 23212 PWs)   bands (ev):

   -35.4788 -35.4778 -35.4756 -35.4745 -35.4724 -35.4714 -35.4691 -35.4681
   -29.0840 -29.0826 -29.0793 -29.0779 -16.2691 -16.2625 -16.2618 -16.1575
   -16.0770 -16.0725 -16.0152 -16.0040 -15.9986 -15.9597 -15.9562 -15.9535
   -15.9367 -15.9259 -15.9078 -15.9077 -15.8987 -15.8979 -15.8490 -15.8346
   -15.7894 -15.7871 -15.7792 -15.7704 -15.7675 -15.7652 -15.7628 -15.7607
   -10.9532 -10.9206 -10.9147 -10.9070 -10.8941 -10.8785 -10.8663 -10.8616
   -10.8291 -10.8257 -10.7467 -10.7448  -7.3396  -7.2220  -7.2119  -7.1482
    -6.9279  -6.8445  -6.7116  -6.7084  -6.6979  -6.6808  -6.6789  -6.5819
    -6.5667  -6.5604  -6.5560  -6.5077  -6.1571  -6.1153  -6.0814  -6.0420
    -6.0406  -6.0396  -5.9607  -5.9464  -1.7865  -1.6598  -1.5830  -1.5046
    -1.4819  -1.4650  -1.4564  -1.4109  -1.3900  -1.3826  -1.3410  -1.3196
     5.1097   5.1210   5.1250   5.1269   5.2469   5.3825   5.3881   5.4110
     5.4377   5.5087   5.5824   5.7080   5.7747   5.8690   5.8940   5.9353
     5.9361   5.9622   5.9974   6.0003   6.0338   6.2117   6.2727   6.4055
     6.4357   6.4369   6.5614   6.6250   6.6358   6.7272   6.7900   6.8137
     6.8235   6.8586   6.8610   7.0642   7.0685   7.0839   7.1841   7.2312
     7.2609   7.2767   7.3067   7.3193   7.4098   7.4796   7.6274   7.6471
     7.6475   7.8249   7.9289   7.9359   7.9392   7.9675   7.9870   8.0608
     8.0758   8.1102   8.1545   8.1608   8.1788   8.2167   8.2425   8.2492
     8.2738   8.2885   8.3439   8.4133   8.4368   8.4422   8.7242   8.7577

     occupation numbers 
     1.0000   1.0000   1.0000   1.0000   1.0000   1.0000   1.0000   1.0000
     1.0000   1.0000   1.0000   1.0000   1.0000   1.0000   1.0000   1.0000
     1.0000   1.0000   1.0000   1.0000   1.0000   1.0000   1.0000   1.0000
     1.0000   1.0000   1.0000   1.0000   1.0000   1.0000   1.0000   1.0000
     1.0000   1.0000   1.0000   1.0000   1.0000   1.0000   1.0000   1.0000
     1.0000   1.0000   1.0000   1.0000   1.0000   1.0000   1.0000   1.0000
     1.0000   1.0000   1.0000   1.0000   1.0000   1.0000   1.0000   1.0000
     1.0000   1.0000   1.0000   1.0000   1.0000   1.0000   1.0000   1.0000
     1.0000   1.0000   1.0000   1.0000   1.0000   1.0000   1.0000   1.0000
     1.0000   1.0000   1.0000   1.0000   1.0000   1.0000   1.0000   1.0000
     1.0000   1.0000   1.0000   1.0000   1.0000   1.0000   1.0000   1.0000
     1.0000   1.0000   1.0000   1.0000   1.0000   1.0000   1.0000   1.0000
     1.0000   1.0000   1.0000   1.0000   1.0000   1.0000   1.0000   1.0000
     1.0000   1.0000   1.0000   1.0000   1.0000   1.0000   1.0000   1.0000
     1.0000   1.0000   1.0000   1.0000   1.0000   1.0000   1.0000   1.0000
     1.0000   1.0000   1.0000   1.0000   1.0000   1.0000   1.0000   1.0000
     1.0000   1.0000   1.0000   1.0000   1.0000   1.0000   1.0000   1.0000
     1.0000   1.0000   1.0000   1.0000   1.0000   1.0000   1.0000   1.0000
     1.0000   1.0000   1.0000   1.0000   1.0000   1.0000   1.0000   1.0000
     1.0000   1.0000   1.0000   1.0000   1.0000   1.0000   1.0000   1.0000

          k = 0.2500 0.0000-0.2566 ( 23253 PWs)   bands (ev):

   -35.4808 -35.4775 -35.4758 -35.4743 -35.4726 -35.4710 -35.4695 -35.4663
   -29.0840 -29.0826 -29.0793 -29.0779 -16.2892 -16.2668 -16.2616 -16.1578
   -16.0771 -16.0712 -16.0470 -16.0412 -16.0408 -16.0162 -15.9662 -15.9653
   -15.9563 -15.9489 -15.9370 -15.8553 -15.8228 -15.8221 -15.7999 -15.7972
   -15.7894 -15.7845 -15.7700 -15.7695 -15.7671 -15.7652 -15.7627 -15.7583
   -10.9546 -10.9233 -10.9154 -10.9091 -10.8941 -10.8797 -10.8663 -10.8618
   -10.8294 -10.8261 -10.7467 -10.7448  -7.3191  -7.2682  -7.1868  -7.1802
    -7.1117  -7.0700  -7.0507  -7.0004  -6.7010  -6.6902  -6.6486  -6.6191
    -6.3129  -6.2555  -6.2335  -6.2201  -6.1410  -6.1225  -6.0728  -6.0557
    -6.0369  -6.0269  -5.9633  -5.9520  -1.7880  -1.6581  -1.5827  -1.5054
    -1.4813  -1.4658  -1.4558  -1.4094  -1.3893  -1.3826  -1.3397  -1.3195
     5.0837   5.0858   5.0925   5.1272   5.1287   5.1320   5.2970   5.3802
     5.4063   5.4492   5.4525   5.5001   5.6619   5.6936   5.8162   5.8572
     5.9541   5.9803   6.1026   6.2445   6.2561   6.2822   6.3037   6.4021
     6.4068   6.4772   6.5005   6.5810   6.5994   6.6175   6.6374   6.7636
     6.8851   6.8868   6.9944   7.0797   7.1195   7.1370   7.1426   7.2099
     7.2221   7.3772   7.3935   7.5309   7.5595   7.5777   7.6432   7.7640
     7.7824   7.7983   7.8101   7.8218   7.9051   7.9218   7.9497   8.0042
     8.0167   8.0386   8.1130   8.1874   8.1897   8.2122   8.3148   8.3217
     8.3238   8.3638   8.3694   8.4148   8.6881   8.7036   8.7301   8.7560

     occupation numbers 
     1.0000   1.0000   1.0000   1.0000   1.0000   1.0000   1.0000   1.0000
     1.0000   1.0000   1.0000   1.0000   1.0000   1.0000   1.0000   1.0000
     1.0000   1.0000   1.0000   1.0000   1.0000   1.0000   1.0000   1.0000
     1.0000   1.0000   1.0000   1.0000   1.0000   1.0000   1.0000   1.0000
     1.0000   1.0000   1.0000   1.0000   1.0000   1.0000   1.0000   1.0000
     1.0000   1.0000   1.0000   1.0000   1.0000   1.0000   1.0000   1.0000
     1.0000   1.0000   1.0000   1.0000   1.0000   1.0000   1.0000   1.0000
     1.0000   1.0000   1.0000   1.0000   1.0000   1.0000   1.0000   1.0000
     1.0000   1.0000   1.0000   1.0000   1.0000   1.0000   1.0000   1.0000
     1.0000   1.0000   1.0000   1.0000   1.0000   1.0000   1.0000   1.0000
     1.0000   1.0000   1.0000   1.0000   1.0000   1.0000   1.0000   1.0000
     1.0000   1.0000   1.0000   1.0000   1.0000   1.0000   1.0000   1.0000
     1.0000   1.0000   1.0000   1.0000   1.0000   1.0000   1.0000   1.0000
     1.0000   1.0000   1.0000   1.0000   1.0000   1.0000   1.0000   1.0000
     1.0000   1.0000   1.0000   1.0000   1.0000   1.0000   1.0000   1.0000
     1.0000   1.0000   1.0000   1.0000   1.0000   1.0000   1.0000   1.0000
     1.0000   1.0000   1.0000   1.0000   1.0000   1.0000   1.0000   1.0000
     1.0000   1.0000   1.0000   1.0000   1.0000   1.0000   1.0000   1.0000
     1.0000   1.0000   1.0000   1.0000   1.0000   1.0000   1.0000   1.0000
     1.0000   1.0000   1.0000   1.0000   1.0000   1.0000   1.0000   1.0000

          k = 0.2500 0.2556 0.0000 ( 23248 PWs)   bands (ev):

   -35.4808 -35.4775 -35.4762 -35.4739 -35.4729 -35.4707 -35.4694 -35.4663
   -29.0835 -29.0822 -29.0797 -29.0784 -16.2950 -16.2553 -16.2543 -16.1678
   -16.0811 -16.0799 -16.0716 -16.0342 -16.0286 -16.0067 -15.9867 -15.9680
   -15.9538 -15.9255 -15.9175 -15.8659 -15.8202 -15.8128 -15.8090 -15.8050
   -15.7955 -15.7949 -15.7902 -15.7764 -15.7576 -15.7536 -15.7514 -15.7476
   -10.9495 -10.9197 -10.9139 -10.9123 -10.8720 -10.8705 -10.8602 -10.8557
   -10.8360 -10.8306 -10.7700 -10.7668  -7.2713  -7.2706  -7.2372  -7.1649
    -7.0748  -7.0662  -7.0520  -7.0137  -6.6973  -6.6779  -6.6735  -6.6249
    -6.3063  -6.2817  -6.2445  -6.2422  -6.1241  -6.0908  -6.0856  -6.0704
    -6.0267  -5.9941  -5.9759  -5.9680  -1.7669  -1.5867  -1.5552  -1.5336
    -1.5135  -1.5098  -1.4823  -1.4178  -1.3638  -1.3633  -1.3521  -1.3456
     5.0742   5.0846   5.0913   5.1008   5.1360   5.1532   5.2699   5.4073
     5.4417   5.4619   5.5359   5.5755   5.6162   5.7170   5.8000   5.8345
     5.8897   6.0143   6.0520   6.1483   6.2235   6.2875   6.3357   6.3727
     6.4747   6.4805   6.5144   6.5832   6.6721   6.6858   6.7116   6.7927
     6.9447   6.9957   7.0110   7.0205   7.0514   7.0648   7.1414   7.1502
     7.2067   7.2386   7.3672   7.4575   7.5643   7.5652   7.6423   7.7524
     7.7696   7.8312   7.8353   7.8752   7.9101   7.9257   7.9370   7.9458
     8.0169   8.0814   8.1045   8.1802   8.1882   8.2457   8.2605   8.3032
     8.3251   8.3461   8.3755   8.4695   8.6249   8.6718   8.7772   8.7883

     occupation numbers 
     1.0000   1.0000   1.0000   1.0000   1.0000   1.0000   1.0000   1.0000
     1.0000   1.0000   1.0000   1.0000   1.0000   1.0000   1.0000   1.0000
     1.0000   1.0000   1.0000   1.0000   1.0000   1.0000   1.0000   1.0000
     1.0000   1.0000   1.0000   1.0000   1.0000   1.0000   1.0000   1.0000
     1.0000   1.0000   1.0000   1.0000   1.0000   1.0000   1.0000   1.0000
     1.0000   1.0000   1.0000   1.0000   1.0000   1.0000   1.0000   1.0000
     1.0000   1.0000   1.0000   1.0000   1.0000   1.0000   1.0000   1.0000
     1.0000   1.0000   1.0000   1.0000   1.0000   1.0000   1.0000   1.0000
     1.0000   1.0000   1.0000   1.0000   1.0000   1.0000   1.0000   1.0000
     1.0000   1.0000   1.0000   1.0000   1.0000   1.0000   1.0000   1.0000
     1.0000   1.0000   1.0000   1.0000   1.0000   1.0000   1.0000   1.0000
     1.0000   1.0000   1.0000   1.0000   1.0000   1.0000   1.0000   1.0000
     1.0000   1.0000   1.0000   1.0000   1.0000   1.0000   1.0000   1.0000
     1.0000   1.0000   1.0000   1.0000   1.0000   1.0000   1.0000   1.0000
     1.0000   1.0000   1.0000   1.0000   1.0000   1.0000   1.0000   1.0000
     1.0000   1.0000   1.0000   1.0000   1.0000   1.0000   1.0000   1.0000
     1.0000   1.0000   1.0000   1.0000   1.0000   1.0000   1.0000   1.0000
     1.0000   1.0000   1.0000   1.0000   1.0000   1.0000   1.0000   1.0000
     1.0000   1.0000   1.0000   1.0000   1.0000   1.0000   1.0000   1.0000
     1.0000   1.0000   1.0000   1.0000   1.0000   1.0000   1.0000   1.0000

          k = 0.2500 0.2556 0.2566 ( 23238 PWs)   bands (ev):

   -35.4798 -35.4765 -35.4752 -35.4749 -35.4720 -35.4717 -35.4704 -35.4672
   -29.0835 -29.0822 -29.0797 -29.0784 -16.2774 -16.2508 -16.2504 -16.1652
   -16.0490 -16.0435 -16.0410 -16.0341 -16.0288 -16.0039 -15.9760 -15.9648
   -15.9527 -15.9230 -15.9197 -15.8669 -15.8316 -15.8189 -15.8153 -15.8109
   -15.8076 -15.8040 -15.7980 -15.7963 -15.7871 -15.7791 -15.7702 -15.7621
   -10.9481 -10.9184 -10.9120 -10.9110 -10.8710 -10.8698 -10.8600 -10.8555
   -10.8356 -10.8303 -10.7698 -10.7666  -7.1980  -7.1598  -7.1051  -7.0795
    -7.0470  -7.0159  -6.9956  -6.9823  -6.7135  -6.6748  -6.6592  -6.6198
    -6.3081  -6.3012  -6.2960  -6.2624  -6.2556  -6.2342  -6.2188  -6.2146
    -6.0259  -6.0204  -5.9709  -5.9660  -1.7663  -1.5876  -1.5552  -1.5341
    -1.5138  -1.5099  -1.4816  -1.4181  -1.3645  -1.3642  -1.3522  -1.3457
     5.1194   5.1278   5.1596   5.2521   5.2955   5.3374   5.3989   5.4482
     5.4823   5.5519   5.5695   5.6473   5.6725   5.7984   5.8454   5.8761
     5.9770   6.0012   6.0295   6.1006   6.2042   6.2148   6.3110   6.3432
     6.3708   6.4496   6.4736   6.5389   6.5677   6.5801   6.6127   6.6791
     6.7073   6.7854   6.7906   6.9652   7.0323   7.1666   7.2212   7.3026
     7.3808   7.4506   7.5476   7.5481   7.5610   7.6154   7.7301   7.7954
     7.8383   7.8426   7.8466   7.8932   7.9049   7.9212   7.9514   7.9552
     7.9587   7.9956   8.0257   8.0472   8.0789   8.1622   8.1678   8.2411
     8.2656   8.2791   8.3278   8.3359   8.6148   8.6605   8.7044   8.7168

     occupation numbers 
     1.0000   1.0000   1.0000   1.0000   1.0000   1.0000   1.0000   1.0000
     1.0000   1.0000   1.0000   1.0000   1.0000   1.0000   1.0000   1.0000
     1.0000   1.0000   1.0000   1.0000   1.0000   1.0000   1.0000   1.0000
     1.0000   1.0000   1.0000   1.0000   1.0000   1.0000   1.0000   1.0000
     1.0000   1.0000   1.0000   1.0000   1.0000   1.0000   1.0000   1.0000
     1.0000   1.0000   1.0000   1.0000   1.0000   1.0000   1.0000   1.0000
     1.0000   1.0000   1.0000   1.0000   1.0000   1.0000   1.0000   1.0000
     1.0000   1.0000   1.0000   1.0000   1.0000   1.0000   1.0000   1.0000
     1.0000   1.0000   1.0000   1.0000   1.0000   1.0000   1.0000   1.0000
     1.0000   1.0000   1.0000   1.0000   1.0000   1.0000   1.0000   1.0000
     1.0000   1.0000   1.0000   1.0000   1.0000   1.0000   1.0000   1.0000
     1.0000   1.0000   1.0000   1.0000   1.0000   1.0000   1.0000   1.0000
     1.0000   1.0000   1.0000   1.0000   1.0000   1.0000   1.0000   1.0000
     1.0000   1.0000   1.0000   1.0000   1.0000   1.0000   1.0000   1.0000
     1.0000   1.0000   1.0000   1.0000   1.0000   1.0000   1.0000   1.0000
     1.0000   1.0000   1.0000   1.0000   1.0000   1.0000   1.0000   1.0000
     1.0000   1.0000   1.0000   1.0000   1.0000   1.0000   1.0000   1.0000
     1.0000   1.0000   1.0000   1.0000   1.0000   1.0000   1.0000   1.0000
     1.0000   1.0000   1.0000   1.0000   1.0000   1.0000   1.0000   1.0000
     1.0000   1.0000   1.0000   1.0000   1.0000   1.0000   1.0000   1.0000

          k = 0.2500 0.2556-0.5131 ( 23192 PWs)   bands (ev):

   -35.4779 -35.4768 -35.4746 -35.4736 -35.4733 -35.4723 -35.4701 -35.4691
   -29.0835 -29.0822 -29.0797 -29.0784 -16.2586 -16.2477 -16.2462 -16.1634
   -16.0348 -16.0326 -16.0091 -16.0037 -15.9965 -15.9585 -15.9560 -15.9536
   -15.9326 -15.9253 -15.9064 -15.8994 -15.8924 -15.8697 -15.8661 -15.8490
   -15.8179 -15.8104 -15.8044 -15.8024 -15.7853 -15.7849 -15.7804 -15.7626
   -10.9468 -10.9171 -10.9109 -10.9091 -10.8700 -10.8690 -10.8598 -10.8552
   -10.8352 -10.8300 -10.7696 -10.7664  -7.1994  -7.0711  -7.0693  -7.0092
    -6.8974  -6.8038  -6.7498  -6.7047  -6.6919  -6.6860  -6.6817  -6.5860
    -6.5782  -6.5599  -6.5497  -6.5266  -6.3109  -6.2940  -6.2483  -6.2100
    -6.0297  -6.0266  -5.9685  -5.9608  -1.7657  -1.5882  -1.5554  -1.5345
    -1.5142  -1.5099  -1.4810  -1.4185  -1.3651  -1.3650  -1.3524  -1.3457
     5.1825   5.2244   5.2470   5.2581   5.3921   5.4504   5.4682   5.6269
     5.6555   5.6590   5.6751   5.6868   5.8303   5.8905   5.9061   5.9094
     5.9348   5.9457   6.0274   6.0279   6.0484   6.1150   6.1932   6.3042
     6.3089   6.4359   6.5312   6.5523   6.5790   6.5843   6.5977   6.7929
     6.7938   6.8171   6.8323   6.8483   7.0638   7.0801   7.1357   7.1744
     7.2347   7.2991   7.3595   7.4899   7.5009   7.6013   7.7305   7.7527
     7.7914   7.8385   7.8636   7.8943   7.9132   7.9768   7.9841   7.9939
     8.0450   8.0664   8.0796   8.0809   8.0871   8.0986   8.1358   8.1857
     8.2662   8.2768   8.3011   8.3890   8.4469   8.4512   8.6454   8.6622

     occupation numbers 
     1.0000   1.0000   1.0000   1.0000   1.0000   1.0000   1.0000   1.0000
     1.0000   1.0000   1.0000   1.0000   1.0000   1.0000   1.0000   1.0000
     1.0000   1.0000   1.0000   1.0000   1.0000   1.0000   1.0000   1.0000
     1.0000   1.0000   1.0000   1.0000   1.0000   1.0000   1.0000   1.0000
     1.0000   1.0000   1.0000   1.0000   1.0000   1.0000   1.0000   1.0000
     1.0000   1.0000   1.0000   1.0000   1.0000   1.0000   1.0000   1.0000
     1.0000   1.0000   1.0000   1.0000   1.0000   1.0000   1.0000   1.0000
     1.0000   1.0000   1.0000   1.0000   1.0000   1.0000   1.0000   1.0000
     1.0000   1.0000   1.0000   1.0000   1.0000   1.0000   1.0000   1.0000
     1.0000   1.0000   1.0000   1.0000   1.0000   1.0000   1.0000   1.0000
     1.0000   1.0000   1.0000   1.0000   1.0000   1.0000   1.0000   1.0000
     1.0000   1.0000   1.0000   1.0000   1.0000   1.0000   1.0000   1.0000
     1.0000   1.0000   1.0000   1.0000   1.0000   1.0000   1.0000   1.0000
     1.0000   1.0000   1.0000   1.0000   1.0000   1.0000   1.0000   1.0000
     1.0000   1.0000   1.0000   1.0000   1.0000   1.0000   1.0000   1.0000
     1.0000   1.0000   1.0000   1.0000   1.0000   1.0000   1.0000   1.0000
     1.0000   1.0000   1.0000   1.0000   1.0000   1.0000   1.0000   1.0000
     1.0000   1.0000   1.0000   1.0000   1.0000   1.0000   1.0000   1.0000
     1.0000   1.0000   1.0000   1.0000   1.0000   1.0000   1.0000   1.0000
     1.0000   1.0000   1.0000   1.0000   1.0000   1.0000   1.0000   1.0000

          k = 0.2500 0.2556-0.2566 ( 23238 PWs)   bands (ev):

   -35.4798 -35.4765 -35.4752 -35.4749 -35.4720 -35.4717 -35.4704 -35.4672
   -29.0835 -29.0822 -29.0797 -29.0784 -16.2774 -16.2508 -16.2504 -16.1652
   -16.0490 -16.0435 -16.0410 -16.0341 -16.0288 -16.0039 -15.9760 -15.9648
   -15.9527 -15.9230 -15.9197 -15.8669 -15.8316 -15.8189 -15.8153 -15.8109
   -15.8076 -15.8040 -15.7980 -15.7963 -15.7871 -15.7791 -15.7702 -15.7621
   -10.9481 -10.9184 -10.9120 -10.9110 -10.8710 -10.8698 -10.8600 -10.8555
   -10.8356 -10.8303 -10.7698 -10.7666  -7.1980  -7.1598  -7.1051  -7.0795
    -7.0470  -7.0159  -6.9956  -6.9823  -6.7135  -6.6748  -6.6592  -6.6198
    -6.3081  -6.3012  -6.2960  -6.2624  -6.2556  -6.2342  -6.2188  -6.2146
    -6.0259  -6.0204  -5.9709  -5.9660  -1.7663  -1.5876  -1.5552  -1.5341
    -1.5138  -1.5099  -1.4816  -1.4181  -1.3645  -1.3642  -1.3522  -1.3457
     5.1194   5.1278   5.1596   5.2521   5.2955   5.3374   5.3989   5.4482
     5.4823   5.5519   5.5695   5.6473   5.6725   5.7984   5.8454   5.8761
     5.9770   6.0012   6.0295   6.1006   6.2042   6.2148   6.3110   6.3432
     6.3708   6.4496   6.4736   6.5389   6.5677   6.5801   6.6127   6.6791
     6.7073   6.7854   6.7906   6.9652   7.0323   7.1666   7.2212   7.3026
     7.3808   7.4506   7.5476   7.5481   7.5610   7.6154   7.7301   7.7954
     7.8383   7.8426   7.8466   7.8932   7.9049   7.9212   7.9514   7.9552
     7.9587   7.9956   8.0257   8.0472   8.0789   8.1622   8.1678   8.2411
     8.2656   8.2791   8.3278   8.3359   8.6148   8.6605   8.7044   8.7168

     occupation numbers 
     1.0000   1.0000   1.0000   1.0000   1.0000   1.0000   1.0000   1.0000
     1.0000   1.0000   1.0000   1.0000   1.0000   1.0000   1.0000   1.0000
     1.0000   1.0000   1.0000   1.0000   1.0000   1.0000   1.0000   1.0000
     1.0000   1.0000   1.0000   1.0000   1.0000   1.0000   1.0000   1.0000
     1.0000   1.0000   1.0000   1.0000   1.0000   1.0000   1.0000   1.0000
     1.0000   1.0000   1.0000   1.0000   1.0000   1.0000   1.0000   1.0000
     1.0000   1.0000   1.0000   1.0000   1.0000   1.0000   1.0000   1.0000
     1.0000   1.0000   1.0000   1.0000   1.0000   1.0000   1.0000   1.0000
     1.0000   1.0000   1.0000   1.0000   1.0000   1.0000   1.0000   1.0000
     1.0000   1.0000   1.0000   1.0000   1.0000   1.0000   1.0000   1.0000
     1.0000   1.0000   1.0000   1.0000   1.0000   1.0000   1.0000   1.0000
     1.0000   1.0000   1.0000   1.0000   1.0000   1.0000   1.0000   1.0000
     1.0000   1.0000   1.0000   1.0000   1.0000   1.0000   1.0000   1.0000
     1.0000   1.0000   1.0000   1.0000   1.0000   1.0000   1.0000   1.0000
     1.0000   1.0000   1.0000   1.0000   1.0000   1.0000   1.0000   1.0000
     1.0000   1.0000   1.0000   1.0000   1.0000   1.0000   1.0000   1.0000
     1.0000   1.0000   1.0000   1.0000   1.0000   1.0000   1.0000   1.0000
     1.0000   1.0000   1.0000   1.0000   1.0000   1.0000   1.0000   1.0000
     1.0000   1.0000   1.0000   1.0000   1.0000   1.0000   1.0000   1.0000
     1.0000   1.0000   1.0000   1.0000   1.0000   1.0000   1.0000   1.0000

          k = 0.2500-0.5112 0.0000 ( 23244 PWs)   bands (ev):

   -35.4785 -35.4785 -35.4752 -35.4752 -35.4717 -35.4717 -35.4685 -35.4685
   -29.0829 -29.0816 -29.0803 -29.0790 -16.2681 -16.2654 -16.2142 -16.2113
   -16.0727 -16.0725 -16.0367 -16.0361 -15.9674 -15.9671 -15.9323 -15.9318
   -15.9276 -15.9266 -15.9135 -15.9127 -15.8773 -15.8761 -15.8722 -15.8719
   -15.7982 -15.7981 -15.7839 -15.7836 -15.7545 -15.7545 -15.7506 -15.7506
   -10.9355 -10.9335 -10.9071 -10.9055 -10.8538 -10.8515 -10.8432 -10.8411
[...]
     atom   15 type  3   force =     1.97728708    0.00082421    1.82872813
     atom   16 type  3   force =     1.97728729    0.00082460   -1.82872746
     atom   17 type  2   force =     0.91768516    0.00000057    1.53145896
     atom   18 type  2   force =     0.91768960    0.00000057   -1.53145816
     atom   19 type  2   force =     0.91963520   -0.00000057    1.52890162
     atom   20 type  2   force =     0.91962870   -0.00000059   -1.52890073
     atom   21 type  2   force =     0.91768366   -0.00000026    1.53146088
     atom   22 type  2   force =     0.91767835   -0.00000021   -1.53146059
     atom   23 type  2   force =     0.91963048    0.00000026    1.52890092
     atom   24 type  2   force =     0.91963573    0.00000021   -1.52890053
     atom   25 type  2   force =     0.87985978   -0.00052924   -0.00000098
     atom   26 type  2   force =    -0.00803575    0.00138498    0.00000085
     atom   27 type  2   force =     0.87986470    0.00052925   -0.00000112
     atom   28 type  2   force =    -0.00803767   -0.00138498    0.00000076
     atom   29 type  2   force =     0.87988039   -0.00053031   -0.00000019
     atom   30 type  2   force =    -0.00805062    0.00138540    0.00000042
     atom   31 type  2   force =     0.87987646    0.00053032   -0.00000024
     atom   32 type  2   force =    -0.00804896   -0.00138540    0.00000041
     atom   33 type  2   force =     0.87860783   -0.00028055    0.57246229
     atom   34 type  2   force =     0.87860851   -0.00028149   -0.57246138
     atom   35 type  2   force =     0.87860698    0.00028055    0.57246226
     atom   36 type  2   force =     0.87860761    0.00028150   -0.57246137
     atom   37 type  2   force =     0.87860604   -0.00027867    0.57245134
     atom   38 type  2   force =     0.87860600   -0.00027749   -0.57245149
     atom   39 type  2   force =     0.87860679    0.00027868    0.57245215
     atom   40 type  2   force =     0.87860669    0.00027748   -0.57245222
     The local contribution  to forces
     atom    1 type  4   force =     7.13958393   -0.00000274    0.00000048
     atom    2 type  4   force =     7.13956938   -0.00000128   -0.00000136
     atom    3 type  4   force =     7.13957202    0.00000272    0.00000528
     atom    4 type  4   force =     7.13958027    0.00000125    0.00000250
     atom    5 type  1   force =     1.48586955    0.00000088    0.00000093
     atom    6 type  1   force =     1.48456264   -0.00000088   -0.00000095
     atom    7 type  1   force =     1.48586988   -0.00000032   -0.00000040
     atom    8 type  1   force =     1.48456250    0.00000035    0.00000078
     atom    9 type  3   force =    -1.95741740    0.00083769   -1.84176203
     atom   10 type  3   force =    -1.95741589    0.00083661    1.84176110
     atom   11 type  3   force =    -1.95741698   -0.00083767   -1.84176355
     atom   12 type  3   force =    -1.95741590   -0.00083669    1.84176252
     atom   13 type  3   force =    -1.95741053    0.00083777   -1.84176325
     atom   14 type  3   force =    -1.95741113    0.00083796    1.84176274
     atom   15 type  3   force =    -1.95741092   -0.00083759   -1.84176372
     atom   16 type  3   force =    -1.95741146   -0.00083793    1.84176315
     atom   17 type  2   force =    -0.92282141   -0.00000032   -1.50578432
     atom   18 type  2   force =    -0.92282549   -0.00000053    1.50578356
     atom   19 type  2   force =    -0.92461459    0.00000033   -1.50328326
     atom   20 type  2   force =    -0.92460820    0.00000056    1.50328246
     atom   21 type  2   force =    -0.92281902   -0.00000007   -1.50578617
     atom   22 type  2   force =    -0.92281410    0.00000006    1.50578590
     atom   23 type  2   force =    -0.92460908   -0.00000008   -1.50328260
     atom   24 type  2   force =    -0.92461429   -0.00000007    1.50328226
     atom   25 type  2   force =    -0.92237799    0.00057393    0.00000121
     atom   26 type  2   force =    -0.01847546   -0.00129513   -0.00000098
     atom   27 type  2   force =    -0.92238241   -0.00057395    0.00000108
     atom   28 type  2   force =    -0.01847321    0.00129507   -0.00000069
     atom   29 type  2   force =    -0.92239677    0.00057504    0.00000007
     atom   30 type  2   force =    -0.01845992   -0.00129549   -0.00000026
     atom   31 type  2   force =    -0.92239326   -0.00057492    0.00000017
     atom   32 type  2   force =    -0.01846185    0.00129552   -0.00000040
     atom   33 type  2   force =    -0.66696368    0.00028214   -0.59498923
     atom   34 type  2   force =    -0.66696478    0.00028297    0.59498835
     atom   35 type  2   force =    -0.66696343   -0.00028209   -0.59498931
     atom   36 type  2   force =    -0.66696409   -0.00028298    0.59498837
     atom   37 type  2   force =    -0.66696336    0.00028032   -0.59497880
     atom   38 type  2   force =    -0.66696292    0.00027913    0.59497893
     atom   39 type  2   force =    -0.66696353   -0.00028024   -0.59497960
     atom   40 type  2   force =    -0.66696336   -0.00027911    0.59497962
     The core correction contribution to forces
     atom    1 type  4   force =     0.00000000    0.00000000    0.00000000
     atom    2 type  4   force =     0.00000000    0.00000000    0.00000000
     atom    3 type  4   force =     0.00000000    0.00000000    0.00000000
     atom    4 type  4   force =     0.00000000    0.00000000    0.00000000
     atom    5 type  1   force =     0.00000000    0.00000000    0.00000000
     atom    6 type  1   force =     0.00000000    0.00000000    0.00000000
     atom    7 type  1   force =     0.00000000    0.00000000    0.00000000
     atom    8 type  1   force =     0.00000000    0.00000000    0.00000000
     atom    9 type  3   force =     0.00000000    0.00000000    0.00000000
     atom   10 type  3   force =     0.00000000    0.00000000    0.00000000
     atom   11 type  3   force =     0.00000000    0.00000000    0.00000000
     atom   12 type  3   force =     0.00000000    0.00000000    0.00000000
     atom   13 type  3   force =     0.00000000    0.00000000    0.00000000
     atom   14 type  3   force =     0.00000000    0.00000000    0.00000000
     atom   15 type  3   force =     0.00000000    0.00000000    0.00000000
     atom   16 type  3   force =     0.00000000    0.00000000    0.00000000
     atom   17 type  2   force =     0.00000000    0.00000000    0.00000000
     atom   18 type  2   force =     0.00000000    0.00000000    0.00000000
     atom   19 type  2   force =     0.00000000    0.00000000    0.00000000
     atom   20 type  2   force =     0.00000000    0.00000000    0.00000000
     atom   21 type  2   force =     0.00000000    0.00000000    0.00000000
     atom   22 type  2   force =     0.00000000    0.00000000    0.00000000
     atom   23 type  2   force =     0.00000000    0.00000000    0.00000000
     atom   24 type  2   force =     0.00000000    0.00000000    0.00000000
     atom   25 type  2   force =     0.00000000    0.00000000    0.00000000
     atom   26 type  2   force =     0.00000000    0.00000000    0.00000000
     atom   27 type  2   force =     0.00000000    0.00000000    0.00000000
     atom   28 type  2   force =     0.00000000    0.00000000    0.00000000
     atom   29 type  2   force =     0.00000000    0.00000000    0.00000000
     atom   30 type  2   force =     0.00000000    0.00000000    0.00000000
     atom   31 type  2   force =     0.00000000    0.00000000    0.00000000
     atom   32 type  2   force =     0.00000000    0.00000000    0.00000000
     atom   33 type  2   force =     0.00000000    0.00000000    0.00000000
     atom   34 type  2   force =     0.00000000    0.00000000    0.00000000
     atom   35 type  2   force =     0.00000000    0.00000000    0.00000000
     atom   36 type  2   force =     0.00000000    0.00000000    0.00000000
     atom   37 type  2   force =     0.00000000    0.00000000    0.00000000
     atom   38 type  2   force =     0.00000000    0.00000000    0.00000000
     atom   39 type  2   force =     0.00000000    0.00000000    0.00000000
     atom   40 type  2   force =     0.00000000    0.00000000    0.00000000
     The Hubbard contrib.    to forces
     atom    1 type  4   force =     0.00000000    0.00000000    0.00000000
     atom    2 type  4   force =     0.00000000    0.00000000    0.00000000
     atom    3 type  4   force =     0.00000000    0.00000000    0.00000000
     atom    4 type  4   force =     0.00000000    0.00000000    0.00000000
     atom    5 type  1   force =     0.00000000    0.00000000    0.00000000
     atom    6 type  1   force =     0.00000000    0.00000000    0.00000000
     atom    7 type  1   force =     0.00000000    0.00000000    0.00000000
     atom    8 type  1   force =     0.00000000    0.00000000    0.00000000
     atom    9 type  3   force =     0.00000000    0.00000000    0.00000000
     atom   10 type  3   force =     0.00000000    0.00000000    0.00000000
     atom   11 type  3   force =     0.00000000    0.00000000    0.00000000
     atom   12 type  3   force =     0.00000000    0.00000000    0.00000000
     atom   13 type  3   force =     0.00000000    0.00000000    0.00000000
     atom   14 type  3   force =     0.00000000    0.00000000    0.00000000
     atom   15 type  3   force =     0.00000000    0.00000000    0.00000000
     atom   16 type  3   force =     0.00000000    0.00000000    0.00000000
     atom   17 type  2   force =     0.00000000    0.00000000    0.00000000
     atom   18 type  2   force =     0.00000000    0.00000000    0.00000000
     atom   19 type  2   force =     0.00000000    0.00000000    0.00000000
     atom   20 type  2   force =     0.00000000    0.00000000    0.00000000
     atom   21 type  2   force =     0.00000000    0.00000000    0.00000000
     atom   22 type  2   force =     0.00000000    0.00000000    0.00000000
     atom   23 type  2   force =     0.00000000    0.00000000    0.00000000
     atom   24 type  2   force =     0.00000000    0.00000000    0.00000000
     atom   25 type  2   force =     0.00000000    0.00000000    0.00000000
     atom   26 type  2   force =     0.00000000    0.00000000    0.00000000
     atom   27 type  2   force =     0.00000000    0.00000000    0.00000000
     atom   28 type  2   force =     0.00000000    0.00000000    0.00000000
     atom   29 type  2   force =     0.00000000    0.00000000    0.00000000
     atom   30 type  2   force =     0.00000000    0.00000000    0.00000000
     atom   31 type  2   force =     0.00000000    0.00000000    0.00000000
     atom   32 type  2   force =     0.00000000    0.00000000    0.00000000
     atom   33 type  2   force =     0.00000000    0.00000000    0.00000000
     atom   34 type  2   force =     0.00000000    0.00000000    0.00000000
     atom   35 type  2   force =     0.00000000    0.00000000    0.00000000
     atom   36 type  2   force =     0.00000000    0.00000000    0.00000000
     atom   37 type  2   force =     0.00000000    0.00000000    0.00000000
     atom   38 type  2   force =     0.00000000    0.00000000    0.00000000
     atom   39 type  2   force =     0.00000000    0.00000000    0.00000000
     atom   40 type  2   force =     0.00000000    0.00000000    0.00000000
     The SCF correction term to forces
     atom    1 type  4   force =     0.00000016    0.00000026   -0.00000003
     atom    2 type  4   force =     0.00000045    0.00000034   -0.00000001
     atom    3 type  4   force =     0.00000029   -0.00000028   -0.00000002
     atom    4 type  4   force =     0.00000030   -0.00000026    0.00000006
     atom    5 type  1   force =     0.00000013   -0.00000014    0.00000008
     atom    6 type  1   force =     0.00000016    0.00000013    0.00000008
     atom    7 type  1   force =     0.00000055    0.00000021   -0.00000014
     atom    8 type  1   force =     0.00000053   -0.00000019   -0.00000010
     atom    9 type  3   force =     0.00000080   -0.00000007    0.00000007
     atom   10 type  3   force =     0.00000024   -0.00000011   -0.00000005
     atom   11 type  3   force =     0.00000007    0.00000007    0.00000003
     atom   12 type  3   force =    -0.00000023    0.00000009   -0.00000008
     atom   13 type  3   force =    -0.00000190   -0.00000023    0.00000001
     atom   14 type  3   force =    -0.00000143   -0.00000006    0.00000002
     atom   15 type  3   force =    -0.00000108    0.00000016   -0.00000013
     atom   16 type  3   force =    -0.00000099    0.00000008    0.00000002
     atom   17 type  2   force =     0.00000020   -0.00000025    0.00000032
     atom   18 type  2   force =     0.00000002   -0.00000002   -0.00000034
     atom   19 type  2   force =     0.00000018    0.00000026    0.00000028
     atom   20 type  2   force =     0.00000002    0.00000004   -0.00000030
     atom   21 type  2   force =    -0.00000078    0.00000032    0.00000035
     atom   22 type  2   force =    -0.00000059    0.00000015   -0.00000033
     atom   23 type  2   force =    -0.00000077   -0.00000023    0.00000023
     atom   24 type  2   force =    -0.00000059   -0.00000016   -0.00000027
     atom   25 type  2   force =     0.00000057    0.00000004   -0.00000026
     atom   26 type  2   force =     0.00000019    0.00000000    0.00000021
     atom   27 type  2   force =     0.00000030   -0.00000002    0.00000005
     atom   28 type  2   force =    -0.00000023    0.00000003    0.00000001
     atom   29 type  2   force =    -0.00000040   -0.00000001    0.00000017
     atom   30 type  2   force =    -0.00000105   -0.00000005   -0.00000017
     atom   31 type  2   force =    -0.00000014   -0.00000009    0.00000012
     atom   32 type  2   force =    -0.00000068    0.00000002    0.00000000
     atom   33 type  2   force =    -0.00000038   -0.00000003    0.00000029
     atom   34 type  2   force =     0.00000006    0.00000000   -0.00000031
     atom   35 type  2   force =     0.00000022   -0.00000001    0.00000034
     atom   36 type  2   force =     0.00000028   -0.00000000   -0.00000029
     atom   37 type  2   force =     0.00000123   -0.00000006    0.00000029
     atom   38 type  2   force =     0.00000079   -0.00000000   -0.00000031
     atom   39 type  2   force =     0.00000066   -0.00000001    0.00000030
     atom   40 type  2   force =     0.00000057   -0.00000001   -0.00000029

     Total force =     0.000098     Total SCF correction =     0.000004


     Computing stress (Cartesian axis) and pressure

          total   stress  (Ry/bohr**3)                   (kbar)     P=       -0.06
   0.00000041   0.00000000   0.00000000            0.06        0.00        0.00
   0.00000000  -0.00000139   0.00000000            0.00       -0.20        0.00
   0.00000000   0.00000000  -0.00000032            0.00        0.00       -0.05

     kinetic stress (kbar)  22375.17     -0.00      0.00
                               -0.00  22304.82     -0.00
                                0.00     -0.00  22308.20

     local   stress (kbar)  14259.82      0.00      0.00
                                0.00   8586.43      0.00
                                0.00      0.00   9186.53

     nonloc. stress (kbar) -14827.07      0.00      0.00
                                0.00 -14789.72      0.00
                                0.00      0.00 -14791.58

     hartree stress (kbar)   4127.58     -0.00     -0.00
                               -0.00   6427.99     -0.00
                               -0.00     -0.00   6178.91

     exc-cor stress (kbar)  -3915.00     -0.00     -0.00
                               -0.00  -3913.23      0.00
                               -0.00      0.00  -3913.65

     corecor stress (kbar)      0.00      0.00      0.00
                                0.00      0.00      0.00
                                0.00      0.00      0.00

     ewald   stress (kbar) -22020.43     -0.00      0.00
                               -0.00 -18616.49      0.00
                                0.00      0.00 -18968.45

     hubbard stress (kbar)      0.00      0.00      0.00
                                0.00      0.00      0.00
                                0.00      0.00      0.00

     london  stress (kbar)      0.00      0.00      0.00
                                0.00      0.00      0.00
                                0.00      0.00      0.00

     DFT-D3  stress (kbar)      0.00      0.00      0.00
                                0.00      0.00      0.00
                                0.00      0.00      0.00

     XDM     stress (kbar)      0.00      0.00      0.00
                                0.00      0.00      0.00
                                0.00      0.00      0.00

     dft-nl  stress (kbar)      0.00      0.00      0.00
                                0.00      0.00      0.00
                                0.00      0.00      0.00

     TS-vdW  stress (kbar)      0.00      0.00      0.00
                                0.00      0.00      0.00
                                0.00      0.00      0.00



     Writing output data file ./bto.save/
 
     init_run     :      6.00s CPU      6.45s WALL (       2 calls)
     electrons    :    920.88s CPU    930.58s WALL (      18 calls)
     update_pot   :     33.73s CPU     33.76s WALL (      16 calls)
     forces       :     21.45s CPU     21.79s WALL (      18 calls)
     stress       :    107.67s CPU    107.81s WALL (      18 calls)

     Called by init_run:
     wfcinit      :      3.07s CPU      3.27s WALL (       2 calls)
     wfcinit:atom :      0.04s CPU      0.06s WALL (       6 calls)
     wfcinit:wfcr :      2.86s CPU      3.00s WALL (       6 calls)
     potinit      :      1.60s CPU      1.65s WALL (       2 calls)
     hinit0       :      1.24s CPU      1.31s WALL (       2 calls)

     Called by electrons:
     c_bands      :    848.78s CPU    857.00s WALL (     180 calls)
     sum_band     :     61.76s CPU     62.52s WALL (     180 calls)
     v_of_rho     :      6.04s CPU      6.20s WALL (     182 calls)
     v_h          :      0.36s CPU      0.36s WALL (     182 calls)
     v_xc         :      5.68s CPU      5.83s WALL (     182 calls)
     mix_rho      :      1.58s CPU      1.72s WALL (     180 calls)

     Called by c_bands:
     init_us_2    :      6.23s CPU      6.26s WALL (    1194 calls)
     cegterg      :    805.31s CPU    813.32s WALL (     540 calls)

     Called by sum_band:

     Called by *egterg:
     h_psi        :    367.46s CPU    372.85s WALL (    2438 calls)
     g_psi        :      3.36s CPU      3.38s WALL (    1892 calls)
     cdiaghg      :    222.36s CPU    223.15s WALL (    2336 calls)
     cegterg:over :     84.66s CPU     84.86s WALL (    1892 calls)
     cegterg:upda :     79.80s CPU     80.91s WALL (    1892 calls)
     cegterg:last :     29.76s CPU     29.78s WALL (     563 calls)
     cdiaghg:chol :      7.58s CPU      7.77s WALL (    2336 calls)
     cdiaghg:inve :      5.99s CPU      6.01s WALL (    2336 calls)
     cdiaghg:para :     21.33s CPU     21.38s WALL (    4672 calls)

     Called by h_psi:
     h_psi:calbec :     36.09s CPU     36.13s WALL (    2438 calls)
     vloc_psi     :    289.76s CPU    293.89s WALL (    2438 calls)
     add_vuspsi   :     36.35s CPU     36.40s WALL (    2438 calls)

     General routines
     calbec       :     42.50s CPU     42.55s WALL (    2708 calls)
     fft          :      2.70s CPU      2.77s WALL (    1978 calls)
     ffts         :      0.30s CPU      0.30s WALL (     180 calls)
     fftw         :    303.53s CPU    307.80s WALL (  580994 calls)
 
     Parallel routines
     fft_scatt_xy :     42.96s CPU     43.58s WALL (  583152 calls)
     fft_scatt_yz :     75.67s CPU     76.78s WALL (  583152 calls)
 
     PWSCF        :  18m11.13s CPU  18m25.21s WALL

 
   This run was terminated on:  16:24:51   6Feb2021            

=------------------------------------------------------------------------------=
   JOB DONE.
=------------------------------------------------------------------------------=
