ITEM: TIMESTEP
0
ITEM: NUMBER OF ATOMS
40
ITEM: BOX BOUNDS xy xz yz pp pp pp
0 8.54111 0.5
0 8.04111 0
0 8.04111 0
ITEM: ATOMS x y z fx fy fz 
0.0158533 0.00743963 0.00958098 0.344078 0.0890482 0.00612598 
8.53683 8.02976 4.02279 0.0307926 0.0720859 0.00449116 
4.51164 8.03524 0.00410659 -0.0890437 0.0538963 -0.0495186 
4.02113 0.0134431 4.01989 0.207713 0.109676 0.0400764 
8.27831 4.01047 0.00251365 0.268509 0.114111 -0.102009 
8.2848 4.01845 4.00857 -0.0415171 0.13279 -0.00365985 
4.27217 4.01967 0.00830325 -0.0557609 0.222128 0.020819 
4.26315 4.00994 4.01448 0.260982 0.0724104 -0.0437923 
2.22769 2.08752 1.91861 0.304713 0.0672641 0.011207 
2.21386 2.09922 5.95946 0.150539 0.102413 -0.306692 
6.25583 2.09852 1.93027 0.173746 0.1695 0.323376 
6.24843 2.08413 6.11638 0.0818884 0.149305 -0.11417 
2.46976 6.11221 2.07914 0.294344 0.107287 0.34053 
2.45677 6.09588 6.09705 0.241303 0.171965 0.0642628 
6.49857 6.10505 1.92694 0.0942634 0.20283 0.184238 
6.49088 6.11495 6.09539 0.131484 0.16046 -0.246202 
2.13844 2.00484 8.04045 0.214404 0.235739 0.706275 
2.1365 2.01417 4.03063 0.217104 0.257417 0.724056 
6.16684 2.01055 8.03194 0.327283 0.299922 -0.03108 
6.14531 2.01927 4.00909 0.254614 0.186752 -0.0879977 
2.39976 6.03784 8.02666 0.172033 0.210205 -0.595782 
2.38914 6.03462 4.01563 0.154689 0.190609 -0.607972 
6.40294 6.01755 0.0121292 0.31509 0.22363 0.139403 
6.40767 6.02067 4.0065 0.286096 0.195049 0.0130792 
2.02075 0.0136401 2.01137 0.152479 -0.655029 -0.123598 
2.50597 8.03807 6.02481 0.0954454 -0.677191 0.126016 
6.5263 8.03075 2.0149 0.221805 -0.750931 -0.405932 
6.01588 0.0067095 6.02853 0.259038 -0.725981 0.352032 
2.2715 4.02743 2.02433 0.143316 -0.683508 -0.162177 
2.25182 4.03244 6.04306 0.178815 -0.677601 0.0382561 
6.27687 4.0304 2.01343 0.278479 -0.776556 -0.449041 
6.27805 4.02321 6.02169 0.216814 -0.711915 0.427233 
0.137839 2.00005 2.00921 -0.794846 0.287836 -0.397897 
0.140301 2.0186 6.04094 -0.694713 0.229339 0.198236 
4.13064 2.01741 2.02321 -0.847164 0.235306 -0.394888 
4.14656 1.99721 6.02464 -0.72022 0.274126 0.123914 
0.387159 6.03522 2.01507 -0.669637 0.211559 -0.193242 
0.381007 6.03593 6.03152 -0.700381 0.242375 0.286518 
4.38811 6.03065 2.00176 -0.79932 0.210078 -0.142554 
4.38684 6.0428 6.01811 -0.659256 0.171598 0.328061 
ITEM: TIMESTEP
1
ITEM: NUMBER OF ATOMS
40
ITEM: BOX BOUNDS xy xz yz pp pp pp
0 8.54111 0.5
0 8.04111 0
0 8.04111 0
ITEM: ATOMS x y z fx fy fz 
0.0158712 0.00744426 0.0095813 0.343095 0.0884149 0.00615344 
8.53683 8.02976 4.02279 0.0303447 0.0713093 0.00454407 
4.51163 8.03525 0.00410402 -0.089539 0.053277 -0.049342 
4.02115 0.0134488 4.01989 0.20671 0.109053 0.0400672 
8.27832 4.01048 0.00250835 0.267397 0.113354 -0.101768 
8.28479 4.01846 4.00857 -0.0418284 0.132205 -0.00369697 
4.27217 4.01968 0.00830433 -0.0561819 0.22136 0.0208218 
4.26316 4.00995 4.01448 0.259812 0.0717345 -0.0436885 
2.22773 2.08753 1.91862 0.308446 0.0704906 0.00723568 
2.21388 2.09923 5.95942 0.153758 0.105621 -0.308406 
6.25585 2.09855 1.93032 0.177952 0.173002 0.321674 
6.24844 2.08415 6.11636 0.0856395 0.152684 -0.112313 
2.46981 6.11223 2.07919 0.29762 0.110178 0.341689 
2.45681 6.0959 6.09706 0.244376 0.17499 0.0676797 
6.49858 6.10508 1.92697 0.0981769 0.206163 0.182296 
6.4909 6.11498 6.09535 0.135196 0.163598 -0.244753 
2.13854 2.00494 8.04077 0.213927 0.235035 0.707794 
2.1366 2.01429 4.03095 0.216555 0.25672 0.72571 
6.16699 2.01068 8.03192 0.32623 0.299065 -0.031436 
6.14542 2.01935 4.00905 0.253817 0.186152 -0.088324 
2.39984 6.03794 8.02639 0.171609 0.209652 -0.597289 
2.38921 6.0347 4.01536 0.15429 0.190143 -0.609472 
6.40308 6.01765 0.0121914 0.314094 0.223036 0.13984 
6.4078 6.02076 4.0065 0.285264 0.194452 0.0131714 
2.02082 0.0133479 2.01132 0.15181 -0.65594 -0.122706 
2.50601 8.03777 6.02487 0.0948717 -0.678302 0.125502 
6.52639 8.03041 2.01472 0.220751 -0.752181 -0.404893 
6.016 0.00638561 6.02869 0.257926 -0.727152 0.35104 
2.27156 4.02713 2.02426 0.14271 -0.684577 -0.161587 
2.2519 4.03213 6.04307 0.178111 -0.678668 0.0375596 
6.27699 4.03005 2.01323 0.277345 -0.777842 -0.447879 
6.27815 4.02289 6.02189 0.215867 -0.713047 0.426179 
0.137485 2.00018 2.00903 -0.796356 0.286949 -0.396709 
0.139991 2.01871 6.04103 -0.695943 0.228538 0.197686 
4.13026 2.01752 2.02303 -0.848802 0.23446 -0.393788 
4.14624 1.99733 6.0247 -0.721314 0.273234 0.123147 
0.38686 6.03531 2.01499 -0.670864 0.21088 -0.192657 
0.380695 6.03604 6.03164 -0.701712 0.241634 0.285539 
4.38775 6.03074 2.0017 -0.800761 0.209348 -0.14169 
4.38655 6.04287 6.01826 -0.660397 0.170976 0.327071 
ITEM: TIMESTEP
2
ITEM: NUMBER OF ATOMS
40
ITEM: BOX BOUNDS xy xz yz pp pp pp
0 8.54111 0.5
0 8.04111 0
0 8.04111 0
ITEM: ATOMS x y z fx fy fz 
0.0159247 0.00745808 0.00958225 0.340147 0.0865162 0.00623555 
8.53683 8.02977 4.02279 0.0290044 0.0689838 0.00470161 
4.51162 8.03526 0.00409632 -0.0910232 0.0514202 -0.048813 
4.02118 0.0134659 4.01989 0.203708 0.107187 0.0400393 
8.27836 4.0105 0.00249247 0.264062 0.111083 -0.101044 
8.28479 4.01848 4.00857 -0.0427603 0.130456 -0.0038083 
4.27216 4.01972 0.00830757 -0.0574447 0.219057 0.0208297 
4.2632 4.00996 4.01447 0.256308 0.0697107 -0.0433784 
2.22787 2.08756 1.91862 0.319666 0.0801775 -0.00467849 
2.21395 2.09928 5.95928 0.163426 0.115249 -0.313576 
6.25593 2.09863 1.93046 0.190584 0.183521 0.316585 
6.24848 2.08422 6.11631 0.0968984 0.162831 -0.106752 
2.46994 6.11228 2.07934 0.307466 0.118851 0.345191 
2.45692 6.09598 6.09709 0.253606 0.184073 0.0779313 
6.49863 6.10517 1.92705 0.109925 0.216179 0.17648 
6.49096 6.11505 6.09524 0.146345 0.173022 -0.24042 
2.13882 2.00526 8.04171 0.212496 0.232925 0.712367 
2.13689 2.01463 4.03193 0.214911 0.254631 0.730682 
6.16742 2.01108 8.03188 0.323073 0.296498 -0.0325047 
6.14576 2.0196 4.00893 0.251429 0.184355 -0.0893057 
2.40007 6.03822 8.02559 0.170337 0.207995 -0.601824 
2.38942 6.03496 4.01454 0.153092 0.188748 -0.613983 
6.40351 6.01795 0.0123784 0.311106 0.221256 0.141149 
6.40818 6.02102 4.00652 0.282772 0.192664 0.0134503 
2.02103 0.0124704 2.01115 0.149804 -0.658691 -0.12004 
2.50614 8.03686 6.02504 0.0931511 -0.681647 0.123965 
6.52669 8.02941 2.01418 0.217594 -0.75595 -0.401782 
6.01634 0.0054129 6.02916 0.25459 -0.730686 0.348068 
2.27176 4.02621 2.02404 0.140893 -0.687796 -0.159821 
2.25214 4.03123 6.04313 0.176001 -0.681882 0.0354782 
6.27736 4.02901 2.01263 0.273944 -0.781728 -0.4444 
6.27844 4.02193 6.02246 0.213028 -0.716459 0.423025 
0.136419 2.00056 2.0085 -0.800912 0.284292 -0.393152 
0.13906 2.01901 6.0413 -0.699654 0.22614 0.196043 
4.12913 2.01783 2.02251 -0.853737 0.231924 -0.390495 
4.14527 1.9977 6.02486 -0.724614 0.270563 0.120854 
0.385963 6.03559 2.01473 -0.674564 0.208844 -0.190905 
0.379756 6.03636 6.03203 -0.705721 0.239411 0.282607 
4.38668 6.03102 2.00151 -0.805103 0.20716 -0.139107 
4.38566 6.0431 6.0187 -0.663836 0.169114 0.324107 
ITEM: TIMESTEP
3
ITEM: NUMBER OF ATOMS
40
ITEM: BOX BOUNDS xy xz yz pp pp pp
0 8.54111 0.5
0 8.04111 0
0 8.04111 0
ITEM: ATOMS x y z fx fy fz 
0.0160136 0.00748089 0.00958386 0.335241 0.0833571 0.00637044 
8.53684 8.02979 4.02279 0.0267799 0.0651233 0.00495946 
4.5116 8.03527 0.00408354 -0.0934907 0.0483334 -0.0479349 
4.02123 0.013494 4.0199 0.198723 0.104088 0.0399922 
8.27843 4.01052 0.00246608 0.258511 0.107305 -0.099838 
8.28478 4.01851 4.00857 -0.0443077 0.127553 -0.00399134 
4.27214 4.01977 0.00831299 -0.059547 0.215226 0.0208412 
4.26327 4.00998 4.01446 0.25049 0.0663497 -0.0428606 
2.2281 2.08762 1.91862 0.338425 0.0963415 -0.0245476 
2.21406 2.09936 5.95905 0.179578 0.131317 -0.322268 
6.25607 2.09876 1.9307 0.211675 0.201087 0.308149 
6.24855 2.08433 6.11623 0.115687 0.179767 -0.0975124 
2.47016 6.11236 2.0796 0.323922 0.133331 0.351095 
2.4571 6.09611 6.09715 0.269025 0.199242 0.0950296 
6.4987 6.10533 1.92718 0.129527 0.23291 0.166818 
6.49106 6.11517 6.09506 0.164956 0.188769 -0.233242 
2.1393 2.00578 8.0433 0.210114 0.229421 0.720039 
2.13737 2.0152 4.03355 0.212183 0.251162 0.739025 
6.16815 2.01175 8.03181 0.317827 0.292226 -0.0342945 
6.14633 2.02002 4.00874 0.247466 0.181375 -0.0909424 
2.40045 6.03868 8.02426 0.168216 0.205239 -0.609425 
2.38976 6.03538 4.01318 0.151104 0.18643 -0.621543 
6.4042 6.01845 0.0126913 0.306141 0.218293 0.143342 
6.40882 6.02145 4.00655 0.278636 0.189696 0.0139165 
2.02136 0.0110051 2.01088 0.146465 -0.663328 -0.115623 
2.50635 8.03534 6.02532 0.0902832 -0.687277 0.121418 
6.52718 8.02773 2.01328 0.212342 -0.762298 -0.396624 
6.01692 0.00378821 6.02994 0.249043 -0.736637 0.343143 
2.27207 4.02468 2.02369 0.137864 -0.693209 -0.156894 
2.25254 4.02971 6.04321 0.172484 -0.687291 0.032035 
6.27798 4.02728 2.01164 0.268287 -0.788266 -0.438628 
6.27892 4.02034 6.0234 0.208302 -0.722206 0.417792 
0.13464 2.0012 2.00761 -0.808577 0.279874 -0.38725 
0.137505 2.01952 6.04174 -0.705897 0.222153 0.19332 
4.12723 2.01835 2.02163 -0.862035 0.227707 -0.385028 
4.14366 1.99831 6.02514 -0.730166 0.266126 0.117056 
0.384464 6.03606 2.0143 -0.680784 0.205456 -0.188006 
0.378188 6.0369 6.03266 -0.712466 0.235715 0.277747 
4.38489 6.03149 2.00119 -0.812406 0.203523 -0.134827 
4.38419 6.04348 6.01943 -0.669619 0.166017 0.319192 
ITEM: TIMESTEP
4
ITEM: NUMBER OF ATOMS
40
ITEM: BOX BOUNDS xy xz yz pp pp pp
0 8.54111 0.5
0 8.04111 0
0 8.04111 0
ITEM: ATOMS x y z fx fy fz 
0.0161374 0.00751237 0.00958613 0.328392 0.0789461 0.00655543 
8.53685 8.02981 4.0228 0.0236813 0.0597421 0.00531405 
4.51156 8.03529 0.00406578 -0.0969327 0.0440276 -0.046712 
4.02131 0.013533 4.01992 0.191779 0.0997724 0.0399278 
8.27853 4.01057 0.00242932 0.250759 0.10203 -0.0981533 
8.28476 4.01856 4.00857 -0.0464624 0.123514 -0.00424283 
4.27212 4.01985 0.00832056 -0.0624842 0.209877 0.0208593 
4.26336 4.01 4.01444 0.242382 0.0616714 -0.0421351 
2.22844 2.0877 1.91862 0.364809 0.119015 -0.0523886 
2.21423 2.09948 5.95872 0.202272 0.153858 -0.334602 
6.25627 2.09895 1.93103 0.24128 0.225754 0.296442 
6.24865 2.0845 6.11611 0.14204 0.203542 -0.0846363 
2.47048 6.11249 2.07996 0.347065 0.153652 0.359509 
2.45737 6.09631 6.09723 0.290694 0.22054 0.118991 
6.49882 6.10555 1.92737 0.157017 0.256422 0.153358 
6.49121 6.11535 6.09481 0.191072 0.210892 -0.22329 
2.13996 2.00651 8.04552 0.206781 0.224536 0.730886 
2.13804 2.016 4.03583 0.208384 0.246335 0.750813 
6.16916 2.01268 8.03171 0.310512 0.286263 -0.0368103 
6.14711 2.02059 4.00846 0.241947 0.17723 -0.0932402 
2.40098 6.03933 8.02238 0.165251 0.201394 -0.62016 
2.39024 6.03597 4.01126 0.148339 0.183201 -0.632209 
6.40518 6.01914 0.0131321 0.29922 0.214148 0.146428 
6.4097 6.02206 4.00659 0.272881 0.185564 0.0145766 
2.02183 0.008948 2.0105 0.141795 -0.669932 -0.109501 
2.50664 8.03321 6.0257 0.0862695 -0.695268 0.117882 
6.52786 8.02537 2.01202 0.205007 -0.771321 -0.389457 
6.01771 0.00150623 6.03103 0.241303 -0.745102 0.336296 
2.27251 4.02254 2.02319 0.133624 -0.700888 -0.152832 
2.25308 4.02758 6.04332 0.167563 -0.694974 0.0272673 
6.27884 4.02483 2.01025 0.260387 -0.797557 -0.430602 
6.27958 4.0181 6.02473 0.201705 -0.730373 0.410524 
0.132138 2.00209 2.00639 -0.819462 0.273714 -0.37905 
0.13532 2.02023 6.04235 -0.714761 0.216589 0.189547 
4.12456 2.01908 2.02041 -0.8738 0.221826 -0.377427 
4.1414 1.99915 6.02551 -0.738057 0.25994 0.111793 
0.382357 6.03671 2.01371 -0.68961 0.200726 -0.18399 
0.375984 6.03765 6.03354 -0.722039 0.230556 0.270996 
4.38238 6.03213 2.00076 -0.82277 0.198448 -0.128886 
4.38211 6.04401 6.02044 -0.677833 0.161692 0.312356 
ITEM: TIMESTEP
5
ITEM: NUMBER OF ATOMS
40
ITEM: BOX BOUNDS xy xz yz pp pp pp
0 8.54111 0.5
0 8.04111 0
0 8.04111 0
ITEM: ATOMS x y z fx fy fz 
0.0162953 0.00755206 0.00958908 0.319613 0.0732926 0.00678968 
8.53686 8.02985 4.0228 0.0197295 0.0528701 0.00575297 
4.51152 8.03531 0.00404316 -0.101339 0.0385135 -0.0451499 
4.0214 0.0135824 4.01994 0.182916 0.0942655 0.039845 
8.27865 4.01062 0.00238235 0.240822 0.0952681 -0.0959858 
8.28474 4.01862 4.00856 -0.0492148 0.118357 -0.0045596 
4.2721 4.01995 0.00833031 -0.0662455 0.203031 0.0208807 
4.26348 4.01003 4.01442 0.232031 0.0557042 -0.0412031 
2.22888 2.08782 1.9186 0.398948 0.14824 -0.0882282 
2.21447 2.09964 5.95829 0.231586 0.182917 -0.350746 
6.25654 2.09921 1.93145 0.279483 0.257591 0.281561 
6.24879 2.08473 6.11598 0.176016 0.234216 -0.0681822 
2.47091 6.11266 2.08043 0.377003 0.179866 0.370581 
2.45772 6.09656 6.09734 0.318696 0.248034 0.149843 
6.49898 6.10585 1.9276 0.192445 0.286806 0.136165 
6.49142 6.1156 6.09449 0.224757 0.23948 -0.210659 
2.14081 2.00744 8.0484 0.202506 0.218296 0.74502 
2.1389 2.01701 4.03878 0.203534 0.240176 0.766166 
6.17044 2.01386 8.03158 0.301159 0.278625 -0.04007 
6.14811 2.02133 4.00809 0.234906 0.171948 -0.0961979 
2.40166 6.04016 8.01994 0.161442 0.196472 -0.634124 
2.39085 6.03672 4.00878 0.14481 0.179076 -0.646069 
6.40641 6.02002 0.0137036 0.290373 0.208826 0.150427 
6.41083 6.02282 4.00665 0.265533 0.18029 0.0154378 
2.02243 0.0062931 2.01003 0.135799 -0.678615 -0.101732 
2.50701 8.03047 6.02619 0.0811101 -0.705733 0.113384 
6.52872 8.02232 2.01042 0.195608 -0.783154 -0.380333 
6.01872 -0.00144059 6.03241 0.231392 -0.756216 0.327577 
2.27307 4.01976 2.02255 0.128171 -0.710931 -0.147662 
2.25378 4.02483 6.04345 0.161239 -0.705047 0.0212269 
6.27992 4.02168 2.00848 0.250265 -0.809741 -0.420377 
6.28043 4.01521 6.02641 0.193251 -0.741087 0.40127 
0.128906 2.00322 2.00482 -0.833723 0.265834 -0.368611 
0.132497 2.02113 6.04313 -0.726367 0.209472 0.184758 
4.12112 2.02 2.01885 -0.889192 0.214299 -0.367733 
4.13848 2.00023 6.02599 -0.748405 0.252033 0.105116 
0.379635 6.03755 2.01295 -0.701161 0.194665 -0.178898 
0.373136 6.0386 6.03467 -0.734577 0.223948 0.262408 
4.37913 6.03296 2.00021 -0.836336 0.191955 -0.121338 
4.37944 6.04468 6.02173 -0.688588 0.156155 0.303648 
ITEM: TIMESTEP
6
ITEM: NUMBER OF ATOMS
40
ITEM: BOX BOUNDS xy xz yz pp pp pp
0 8.54111 0.5
0 8.04111 0
0 8.04111 0
ITEM: ATOMS x y z fx fy fz 
0.0164864 0.00759936 0.00959273 0.308933 0.0664103 0.00706826 
8.53688 8.02988 4.0228 0.0149457 0.0445382 0.00626861 
4.51147 8.03534 0.00401585 -0.106695 0.0318123 -0.0432603 
4.02151 0.0136416 4.01996 0.172176 0.0875926 0.0397456 
8.2788 4.01068 0.00232541 0.228723 0.0870385 -0.0933413 
8.28472 4.01869 4.00856 -0.0525454 0.112121 -0.00493775 
4.27206 4.02008 0.00834223 -0.0708221 0.194704 0.0209055 
4.26362 4.01007 4.0144 0.219483 0.0484777 -0.0400629 
2.22944 2.08799 1.91855 0.441006 0.184073 -0.1321 
2.21477 2.09987 5.95776 0.267628 0.218556 -0.370908 
6.25689 2.09954 1.93195 0.326399 0.296703 0.263631 
6.24899 2.08504 6.11582 0.217679 0.271874 -0.048224 
2.47145 6.11288 2.081 0.41387 0.212037 0.384504 
2.45816 6.0969 6.09751 0.353134 0.281804 0.187628 
6.4992 6.10624 1.92787 0.235879 0.324176 0.115321 
6.4917 6.11591 6.09411 0.266095 0.274636 -0.19547 
2.14184 2.00856 8.05194 0.197291 0.21073 0.762574 
2.13994 2.01824 4.04242 0.197661 0.232724 0.785222 
6.172 2.01529 8.03141 0.289807 0.269336 -0.0440896 
6.14932 2.02221 4.00765 0.226383 0.165566 -0.0998193 
2.40248 6.04117 8.01695 0.156793 0.190488 -0.651444 
2.39159 6.03764 4.00572 0.140542 0.174078 -0.663238 
6.40791 6.02109 0.0144093 0.279638 0.202333 0.155363 
6.41219 6.02375 4.00672 0.256641 0.173908 0.0165107 
2.02314 0.00303268 2.00947 0.128484 -0.689519 -0.0923913 
2.50745 8.02709 6.02679 0.0748069 -0.718818 0.107964 
6.52976 8.01857 2.00848 0.184168 -0.797976 -0.369323 
6.01994 -0.00506216 6.03409 0.21934 -0.770154 0.31705 
2.27375 4.01635 2.02178 0.121502 -0.723468 -0.141424 
2.25463 4.02145 6.04361 0.153515 -0.717651 0.013981 
6.28123 4.01781 2.00633 0.237945 -0.824993 -0.408024 
6.28145 4.01166 6.02846 0.182962 -0.754506 0.390106 
0.124929 2.00459 2.00293 -0.851564 0.256264 -0.356011 
0.129026 2.02221 6.04408 -0.740878 0.200823 0.179 
4.11688 2.02111 2.01697 -0.908409 0.205154 -0.35601 
4.13489 2.00153 6.02656 -0.761358 0.24244 0.0970898 
0.376287 6.03855 2.01203 -0.715589 0.187289 -0.172786 
0.369632 6.03976 6.03603 -0.750248 0.215912 0.252051 
4.37514 6.03395 1.99955 -0.853288 0.184065 -0.112248 
4.37614 6.04549 6.02329 -0.702035 0.149421 0.293129 
ITEM: TIMESTEP
7
ITEM: NUMBER OF ATOMS
40
ITEM: BOX BOUNDS xy xz yz pp pp pp
0 8.54111 0.5
0 8.04111 0
0 8.04111 0
ITEM: ATOMS x y z fx fy fz 
0.0167096 0.00765357 0.00959713 0.296371 0.0583185 0.00738647 
8.5369 8.02992 4.0228 0.00935942 0.0347888 0.00685043 
4.5114 8.03537 0.00398405 -0.112978 0.023948 -0.0410524 
4.02164 0.0137099 4.01999 0.15962 0.0797928 0.039629 
8.27897 4.01075 0.00225876 0.214489 0.0773615 -0.0902224 
8.28468 4.01878 4.00856 -0.0564418 0.104833 -0.00536696 
4.27202 4.02022 0.00835632 -0.0762049 0.184925 0.0209277 
4.26379 4.01011 4.01437 0.204807 0.0400366 -0.0387151 
2.23014 2.0882 1.91846 0.491191 0.226587 -0.184052 
2.21515 2.10015 5.95712 0.310532 0.260851 -0.395354 
6.25734 2.09997 1.93253 0.382159 0.34321 0.242803 
6.24925 2.08542 6.11565 0.267123 0.316624 -0.0248488 
2.47211 6.11317 2.0817 0.457844 0.250245 0.401507 
2.45872 6.09731 6.09772 0.394146 0.321954 0.232389 
6.49949 6.10673 1.92817 0.2874 0.368684 0.090929 
6.49205 6.11631 6.09367 0.315193 0.3165 -0.177867 
2.14305 2.00987 8.05616 0.191145 0.201874 0.783724 
2.14115 2.01968 4.04675 0.190793 0.224017 0.808164 
6.17381 2.01696 8.0312 0.276505 0.258425 -0.0488904 
6.15074 2.02325 4.00711 0.216426 0.158127 -0.104108 
2.40345 6.04234 8.01337 0.151307 0.183462 -0.672272 
2.39245 6.0387 4.00207 0.135557 0.168231 -0.683849 
6.40966 6.02234 0.0152536 0.267062 0.194676 0.161261 
6.41378 6.02483 4.0068 0.246248 0.166449 0.0178008 
2.02397 -0.000842955 2.00882 0.119859 -0.702823 -0.0815697 
2.50795 8.02307 6.02748 0.0673584 -0.734698 0.101662 
6.53096 8.01411 2.00621 0.170713 -0.816007 -0.356507 
6.02135 -0.00937091 6.03605 0.205183 -0.787134 0.304792 
2.27453 4.0123 2.02089 0.113617 -0.738655 -0.134171 
2.25561 4.01743 6.04377 0.144394 -0.732963 0.00560973 
6.28276 4.01319 2.00382 0.223457 -0.843539 -0.393622 
6.28263 4.00744 6.03085 0.170865 -0.77083 0.377108 
0.120193 2.00619 2.00071 -0.873235 0.245043 -0.341338 
0.124894 2.02348 6.04518 -0.758497 0.190673 0.172329 
4.11183 2.02241 2.01477 -0.931701 0.194418 -0.34233 
4.13062 2.00305 6.02722 -0.777103 0.231202 0.0877935 
0.372301 6.03972 2.01095 -0.733086 0.178613 -0.165715 
0.365459 6.0411 6.03761 -0.769268 0.206469 0.240004 
4.37038 6.03511 1.99879 -0.873852 0.174804 -0.101693 
4.37222 6.04644 6.02512 -0.718355 0.141507 0.280873 
ITEM: TIMESTEP
8
ITEM: NUMBER OF ATOMS
40
ITEM: BOX BOUNDS xy xz yz pp pp pp
0 8.54111 0.5
0 8.04111 0
0 8.04111 0
ITEM: ATOMS x y z fx fy fz 
0.0169637 0.00771384 0.00960228 0.281964 0.0490359 0.00774445 
8.53691 8.02997 4.02281 0.00299954 0.023667 0.00748104 
4.51133 8.0354 0.00394797 -0.120166 0.0149451 -0.038537 
4.02179 0.0137864 4.02002 0.14531 0.0709033 0.0394982 
8.27916 4.01082 0.00218273 0.198153 0.0662612 -0.0866296 
8.28465 4.01887 4.00856 -0.0608815 0.0965398 -0.0058433 
4.27197 4.02038 0.00837259 -0.0823741 0.173725 0.0209479 
4.26398 4.01016 4.01434 0.188071 0.0304263 -0.0371583 
2.23097 2.08849 1.91832 0.549759 0.275872 -0.244153 
2.21562 2.10052 5.95636 0.360459 0.309902 -0.424397 
6.25791 2.10049 1.93319 0.446941 0.397269 0.219252 
6.24959 2.08589 6.11547 0.324465 0.368595 0.00184489 
2.4729 6.11353 2.08251 0.50914 0.294597 0.421865 
2.45938 6.09782 6.09801 0.441894 0.368618 0.284196 
6.49986 6.10732 1.9285 0.347119 0.420509 0.0630971 
6.4925 6.1168 6.09318 0.372189 0.365239 -0.15802 
2.14442 2.01136 8.06108 0.184074 0.191768 0.808681 
2.14254 2.02132 4.05181 0.182969 0.21411 0.835212 
6.17587 2.01886 8.03094 0.261304 0.245923 -0.054501 
6.15234 2.02443 4.00648 0.205093 0.14968 -0.109071 
2.40454 6.04368 8.00919 0.14499 0.175417 -0.696794 
2.39344 6.03992 3.99781 0.129888 0.161563 -0.708066 
6.41164 6.02376 0.0162418 0.252697 0.185862 0.168156 
6.4156 6.02607 4.0069 0.234417 0.157957 0.0193255 
2.02491 -0.00534566 2.0081 0.109928 -0.718735 -0.0693706 
2.50852 8.01839 6.02826 0.0587639 -0.753595 0.0945303 
6.53231 8.00892 2.00362 0.155272 -0.837512 -0.341977 
6.02295 -0.014382 6.03829 0.18896 -0.807413 0.290887 
2.27541 4.00759 2.01988 0.104509 -0.756689 -0.125955 
2.25672 4.01276 6.04395 0.133874 -0.751201 -0.00379735 
6.28448 4.00783 2.00096 0.206834 -0.865644 -0.377271 
6.28396 4.00253 6.03358 0.156985 -0.790299 0.362371 
0.114678 2.008 1.9982 -0.899038 0.232209 -0.324698 
0.120085 2.02491 6.04644 -0.77946 0.179055 0.164808 
4.10595 2.02388 2.01226 -0.959369 0.182128 -0.326772 
4.12566 2.00477 6.02796 -0.795872 0.218364 0.0773165 
0.367661 6.04105 2.00973 -0.753885 0.168661 -0.15776 
0.360599 6.04263 6.03941 -0.791895 0.195646 0.226361 
4.36484 6.03643 1.99795 -0.898306 0.164204 -0.0897614 
4.36766 6.04751 6.02719 -0.737772 0.132437 0.266957 
ITEM: TIMESTEP
9
ITEM: NUMBER OF ATOMS
40
ITEM: BOX BOUNDS xy xz yz pp pp pp
0 8.54111 0.5
0 8.04111 0
0 8.04111 0
ITEM: ATOMS x y z fx fy fz 
0.017247 0.0077792 0.00960825 0.265747 0.0385876 0.00813213 
8.53693 8.03002 4.02281 -0.00410195 0.0112261 0.00814191 
4.51124 8.03544 0.00390789 -0.128238 0.00483278 -0.0357339 
4.02195 0.0138704 4.02005 0.129322 0.0609693 0.0393521 
8.27938 4.01091 0.0020977 0.179753 0.0537701 -0.0825688 
8.2846 4.01898 4.00855 -0.0658476 0.0872909 -0.0063572 
4.27191 4.02056 0.00839103 -0.0893148 0.161134 0.0209615 
4.26418 4.01021 4.0143 0.169362 0.0196995 -0.0353906 
2.23198 2.08886 1.91811 0.617013 0.33204 -0.312482 
2.2162 2.10097 5.95547 0.417603 0.365827 -0.458402 
6.25861 2.10114 1.93391 0.520957 0.459065 0.193171 
6.25003 2.08648 6.11529 0.389842 0.427946 0.031742 
2.47385 6.11398 2.08345 0.568015 0.34521 0.445895 
2.46019 6.09844 6.09838 0.496574 0.421949 0.343133 
6.50034 6.10804 1.92885 0.415161 0.479865 0.0319497 
6.49307 6.1174 6.09264 0.437245 0.421053 -0.136121 
2.14596 2.01302 8.06673 0.176089 0.180462 0.837689 
2.14409 2.02315 4.05761 0.174228 0.203056 0.866622 
6.17816 2.02098 8.03064 0.244272 0.231866 -0.0609555 
6.15413 2.02573 4.00575 0.192445 0.140282 -0.114705 
2.40577 6.04517 8.00438 0.137845 0.166378 -0.725228 
2.39454 6.04128 3.99292 0.123567 0.154108 -0.736089 
6.41386 6.02535 0.01738 0.236607 0.175902 0.176088 
6.41762 6.02744 4.00702 0.221212 0.14848 0.0211004 
2.02594 -0.0104896 2.00732 0.0987017 -0.737506 -0.0559124 
2.50914 8.01304 6.02912 0.0490254 -0.775758 0.0866265 
6.53381 8.00299 2.00072 0.13788 -0.862802 -0.325835 
6.02471 -0.0201133 6.04078 0.170716 -0.831293 0.275432 
2.27639 4.0022 2.01875 0.0941768 -0.777791 -0.116841 
2.25794 4.00742 6.04411 0.121957 -0.77261 -0.0141334 
6.28639 4.00169 1.99776 0.188115 -0.891618 -0.359071 
6.28544 3.99691 6.03664 0.141352 -0.813194 0.346005 
0.10836 2.01003 1.99539 -0.929328 0.217808 -0.30621 
0.114581 2.02651 6.04785 -0.804055 0.166007 0.15651 
4.09921 2.02551 2.00946 -0.991773 0.168322 -0.309427 
4.11999 2.00669 6.02876 -0.817921 0.203982 0.0657646 
0.362348 6.04254 2.00837 -0.778255 0.157453 -0.149006 
0.355033 6.04434 6.04141 -0.818434 0.183469 0.211229 
4.35851 6.03789 1.99702 -0.926973 0.152299 -0.0765522 
4.36245 6.0487 6.0295 -0.760541 0.122233 0.251477 
ITEM: TIMESTEP
10
ITEM: NUMBER OF ATOMS
40
ITEM: BOX BOUNDS xy xz yz pp pp pp
0 8.54111 0.5
0 8.04111 0
0 8.04111 0
ITEM: ATOMS x y z fx fy fz 
0.017558 0.00784858 0.00961506 0.247762 0.0270031 0.00854874 
8.53695 8.03007 4.02282 -0.0119035 -0.00247349 0.0088198 
4.51113 8.03547 0.0038641 -0.137157 -0.00635196 -0.0326541 
4.02213 0.0139606 4.02009 0.111739 0.050043 0.039196 
8.27961 4.011 0.00200409 0.159333 0.039921 -0.0780449 
8.28455 4.01909 4.00855 -0.0713138 0.0771404 -0.00690126 
4.27184 4.02076 0.00841165 -0.0970018 0.147197 0.0209613 
4.26441 4.01026 4.01426 0.148776 0.0079155 -0.033413 
2.23317 2.08933 1.9178 0.693316 0.395222 -0.389145 
2.2169 2.10154 5.95445 0.482193 0.428771 -0.497787 
6.25946 2.10192 1.93468 0.604464 0.528824 0.164772 
6.25058 2.08719 6.11512 0.463428 0.494874 0.0647261 
2.47497 6.11453 2.08452 0.634769 0.402233 0.473954 
2.46113 6.09919 6.09886 0.558414 0.482134 0.409302 
6.50094 6.1089 1.92922 0.491689 0.547011 -0.00237791 
6.49376 6.11813 6.09206 0.510566 0.484184 -0.112378 
2.14766 2.01484 8.07312 0.167203 0.168005 0.871028 
2.14579 2.02515 4.06419 0.164614 0.190916 0.902692 
6.18068 2.02331 8.03029 0.22548 0.216298 -0.0682903 
6.15609 2.02717 4.00492 0.178557 0.129996 -0.12102 
2.40712 6.04682 7.99894 0.129881 0.156377 -0.757827 
2.39575 6.04278 3.98737 0.116633 0.145899 -0.768139 
6.41628 6.02709 0.0186753 0.218862 0.164806 0.185101 
6.41984 6.02894 4.00715 0.206709 0.138072 0.0231419 
2.02707 -0.0162914 2.00649 0.0861866 -0.759415 -0.0413224 
2.5098 8.007 6.03007 0.0381358 -0.801485 0.0780108 
6.53542 7.99628 1.99754 0.118568 -0.892242 -0.308198 
6.02663 -0.0265863 6.04352 0.150498 -0.859134 0.258536 
2.27745 3.99612 2.01752 0.0826111 -0.802219 -0.106893 
2.25928 4.00138 6.04427 0.10864 -0.797484 -0.0252868 
6.28846 3.99476 1.99424 0.167332 -0.921827 -0.339141 
6.28703 3.99057 6.04 0.124 -0.839843 0.32812 
0.101214 2.01224 1.99231 -0.964521 0.201892 -0.286 
0.108359 2.02825 6.0494 -0.832616 0.151567 0.147512 
4.09159 2.02729 2.00639 -1.02934 0.153038 -0.290396 
4.11358 2.00879 6.02962 -0.843558 0.188109 0.0532446 
0.356341 6.04416 2.00687 -0.806514 0.145012 -0.13954 
0.348737 6.04621 6.04359 -0.849236 0.169969 0.194725 
4.35134 6.03949 1.99602 -0.960236 0.139122 -0.062171 
4.35655 6.05 6.03204 -0.786964 0.110923 0.234535 
ITEM: TIMESTEP
11
ITEM: NUMBER OF ATOMS
40
ITEM: BOX BOUNDS xy xz yz pp pp pp
0 8.54111 0.5
0 8.04111 0
0 8.04111 0
ITEM: ATOMS x y z fx fy fz 
0.0178947 0.00792075 0.00962275 0.228056 0.0143137 0.0089894 
8.53697 8.03011 4.02283 -0.0203721 -0.0173681 0.00949098 
4.51102 8.03551 0.00381692 -0.14689 -0.0185741 -0.0293186 
4.02232 0.0140561 4.02014 0.0926537 0.0381738 0.0390333 
8.27986 4.0111 0.00190237 0.136941 0.0247532 -0.0730654 
8.2845 4.01921 4.00854 -0.0772599 0.0661464 -0.0074657 
4.27177 4.02097 0.00843445 -0.105412 0.131957 0.0209444 
4.26464 4.01032 4.01422 0.126413 -0.0048618 -0.0312218 
2.23456 2.08991 1.91738 0.779096 0.46557 -0.474273 
2.21775 2.10223 5.95328 0.554492 0.498904 -0.543022 
6.2605 2.10286 1.93551 0.697766 0.606814 0.134283 
6.25127 2.08805 6.11497 0.545433 0.569602 0.100671 
2.47628 6.1152 2.08573 0.709763 0.465827 0.506441 
2.46225 6.10008 6.09945 0.627678 0.549388 0.482836 
6.50169 6.10993 1.92957 0.576889 0.622248 -0.0397427 
6.4946 6.119 6.09145 0.592396 0.554909 -0.0870217 
2.1495 2.01682 8.08028 0.157425 0.154458 0.909024 
2.14764 2.02733 4.07157 0.154176 0.17776 0.943761 
6.18339 2.02583 8.02987 0.205005 0.199266 -0.0765516 
6.15821 2.02872 4.00399 0.163504 0.118891 -0.128019 
2.40859 6.0486 7.99281 0.121103 0.145443 -0.794882 
2.39707 6.04441 3.98114 0.109131 0.136978 -0.804472 
6.41889 6.02899 0.0201357 0.199538 0.152588 0.195242 
6.42224 6.03057 4.00731 0.19099 0.126789 0.0254726 
2.02827 -0.0227705 2.00563 0.0723904 -0.784778 -0.0257386 
2.5105 8.00025 6.03108 0.0260953 -0.831109 0.0687534 
6.53714 7.98878 1.99408 0.0973761 -0.926249 -0.289185 
6.02868 -0.0338254 6.04649 0.128356 -0.891338 0.24031 
2.27858 3.98932 2.0162 0.0698084 -0.830265 -0.0961909 
2.26072 3.99464 6.0444 0.0939208 -0.826148 -0.0371355 
6.29069 3.98701 1.99042 0.144529 -0.956688 -0.317602 
6.28874 3.98348 6.04365 0.104963 -0.870618 0.308845 
0.0932074 2.01464 1.98897 -1.0051 0.184515 -0.264204 
0.101395 2.03013 6.05107 -0.865525 0.135778 0.137902 
4.08305 2.02921 2.00305 -1.07255 0.136324 -0.269781 
4.10643 2.01106 6.03053 -0.873126 0.170808 0.0398804 
0.349615 6.04591 2.00525 -0.839028 0.131365 -0.129466 
0.341684 6.04823 6.04596 -0.88471 0.155178 0.176973 
4.34332 6.04121 1.99497 -0.998534 0.124715 -0.046729 
4.34995 6.0514 6.03478 -0.817386 0.0985356 0.216235 
ITEM: TIMESTEP
12
ITEM: NUMBER OF ATOMS
40
ITEM: BOX BOUNDS xy xz yz pp pp pp
0 8.54111 0.5
0 8.04111 0
0 8.04111 0
ITEM: ATOMS x y z fx fy fz 
0.0182551 0.00799442 0.00963138 0.206678 0.000557134 0.00944873 
8.53698 8.03016 4.02283 -0.0294618 -0.033388 0.0101348 
4.51089 8.03554 0.00376669 -0.157398 -0.0317895 -0.0257463 
4.02251 0.0141555 4.02018 0.0721617 0.0254183 0.0388666 
8.28012 4.01119 0.00179307 0.112634 0.00831441 -0.0676364 
8.28443 4.01934 4.00854 -0.0836655 0.0543741 -0.0080392 
4.27168 4.0212 0.00845942 -0.114514 0.115465 0.0208928 
4.2649 4.01037 4.01417 0.102391 -0.018563 -0.0288154 
2.23619 2.09063 1.91681 0.874856 0.543271 -0.568034 
2.21876 2.10307 5.95194 0.634812 0.576431 -0.594645 
6.26174 2.10398 1.93637 0.801236 0.693354 0.101942 
6.25213 2.08908 6.11486 0.636107 0.652409 0.139442 
2.4778 6.11601 2.0871 0.793418 0.536192 0.543795 
2.46355 6.10114 6.10019 0.704678 0.623965 0.563896 
6.50261 6.11114 1.92992 0.670996 0.705927 -0.0799965 
6.49562 6.12003 6.09081 0.683027 0.633564 -0.0602947 
2.15149 2.01893 8.08826 0.146769 0.139882 0.952052 
2.14963 2.02967 4.07979 0.142966 0.163657 0.990231 
6.18628 2.02852 8.02938 0.182937 0.18082 -0.0857939 
6.16048 2.03038 4.00293 0.147374 0.107039 -0.135698 
2.41016 6.05051 7.98598 0.111523 0.133612 -0.836727 
2.39848 6.04617 3.97419 0.101107 0.127388 -0.845377 
6.42169 6.03101 0.0217702 0.178721 0.139261 0.206567 
6.42481 6.03231 4.00749 0.174141 0.114694 0.0281096 
2.02953 -0.0299494 2.00474 0.0573196 -0.813958 -0.0093067 
2.51122 7.99275 6.03215 0.012897 -0.86502 0.0589217 
6.53895 7.98045 1.99036 0.0743359 -0.965307 -0.268921 
6.03084 -0.0418594 6.04968 0.104342 -0.928373 0.220879 
2.27978 3.98179 2.01479 0.055756 -0.862263 -0.0848099 
2.26223 3.98716 6.0445 0.0777943 -0.858972 -0.0495487 
6.29304 3.9784 1.98631 0.119743 -0.996675 -0.294578 
6.29055 3.97561 6.04758 0.0842721 -0.905952 0.288307 
0.0843044 2.0172 1.9854 -1.05162 0.165731 -0.240965 
0.0936596 2.03213 6.05288 -0.903225 0.118686 0.127768 
4.07355 2.03125 1.99948 -1.12198 0.118223 -0.24769 
4.0985 2.01348 6.03148 -0.907023 0.152142 0.025796 
0.34214 6.04778 2.00351 -0.876217 0.116539 -0.118889 
0.333841 6.05038 6.04848 -0.925326 0.139131 0.158106 
4.33441 6.04304 1.99387 -1.04238 0.109114 -0.0303418 
4.34262 6.05288 6.03772 -0.852195 0.0850968 0.196698 
ITEM: TIMESTEP
13
ITEM: NUMBER OF ATOMS
40
ITEM: BOX BOUNDS xy xz yz pp pp pp
0 8.54111 0.5