#LAMMPS 100 water

40 atoms
4 atom types

0.0 8.0411057168277760 xlo xhi
0.0 8.0411057168277760 ylo yhi
0.0 8.0411057168277760 zlo zhi
0.5 0.0 0.0 xy xz yz

Masses

1 137.327 #Ba
2 91.224  # Zr
3 47.867  # Ti
4 15.999  # O

Atoms

1 1 1  1.34730   0.015853276342008362 0.007439631009209058 0.009580977461600295
2 1 1  1.34730   8.536826549447218 8.029756500219046 4.022791502245453
3 1 1  1.34730   4.511639104815757 8.03524455487078 0.004106592689583945
4 1 1  1.34730   4.021134659473236 0.013443120537392675 4.019885446639391
5 1 1  1.34730   8.278307849214785 4.010471724176701 0.0025136496470803626
6 1 1  1.34730   8.284796131194966 4.018449305158366 4.0085691985641
7 1 1  1.34730   4.272170508402987 4.01966994500618 0.008303245763196361
8 1 1  1.34730   4.263147474828041 4.009943423531105 4.0144802153765395
9 1 3  1.28904   2.227689134212926 2.08752331127565 1.9186142569196807
10 1 3 1.28904   2.213856104091466 2.099215078987917 5.959463670273413
11 1 3 1.28904   6.255828477774139 2.0985235438962704 1.9302682314350792
12 1 3 1.28904   6.248432093802084 2.0841275523314335 6.116376199010447
13 1 3 1.28904   2.46976295092491 6.112213318580846 2.0791396544552856
14 1 3 1.28904   2.4567715321808388 6.095877008206538 6.09705342197291
15 1 3 1.28904   6.498569177503263 6.105048693387152 1.9269384095577409
16 1 3 1.28904   6.490876102966064 6.114952119187997 6.095388108978955
17 1 4 -0.87878  2.138441738967766 2.0048374253000816 8.04045277904357
18 1 4 -0.87878  2.136503010546684 2.0141739531478904 4.030631580319359
19 1 4 -0.87878  6.166840087356879 2.010549826801316 8.03193805220002
20 1 4 -0.87878  6.145307893943044 2.019270405951216 4.00909026221455
21 1 4 -0.87878  2.3997594867836707 6.037841935916478 8.02665745807578
22 1 4 -0.87878  2.3891393719958045 6.034618256634601 4.015626877051759
23 1 4 -0.87878  6.402944360446752 6.017551813861206 0.012129203863263016
24 1 4 -0.87878  6.407672839960472 6.020673371100478 4.006497005620873
25 1 4 -0.87878  2.020754607413417 0.013640127627454956 2.011370823695004
26 1 4 -0.87878  2.5059681207482134 8.03806859119853 6.024812128212929
27 1 4 -0.87878  6.526295804785602 8.030748772664502 2.014902477325835
28 1 4 -0.87878  6.015881542817118 0.006709498610121096 6.0285303354963915
29 1 4 -0.87878  2.271500267742357 4.027433632575778 2.02433308611053
30 1 4 -0.87878  2.251821128930323 4.032436004442216 6.043057397084413
31 1 4 -0.87878  6.276867856689099 4.030400800585286 2.013434975532514
32 1 4 -0.87878  6.278053605260188 4.023205619189869 6.021694591526515
33 1 4 -0.87878  0.13783923496026 2.0000473386245674 2.0092061580360343
34 1 4 -0.87878  0.14030061874981617 2.018604602397862 6.040944998612601
35 1 4 -0.87878  4.130641262937034 2.017412106420057 2.023208939531318
36 1 4 -0.87878  4.146560914748178 1.9972104365276704 6.024642460882304
37 1 4 -0.87878  0.3871591124706148 6.035215710789362 2.015074556988175
38 1 4 -0.87878  0.3810072364052273 6.035932977419303 6.031515193938477
39 1 4 -0.87878  4.388109968510396 6.030647558631632 2.001760898252823
40 1 4 -0.87878  4.386839763980326 6.042795257038043 6.018114691261384
