#LAMMPS 100 water

40 atoms
6 atom types

0.0 8.08 xlo xhi
0.0 8.08 ylo yhi
0.0 8.08 zlo zhi


Masses

1 137.327  #Ba
2 40.078  #Ca
3 208.98 #Bi
4 91.224 #Ti
5 24.305 #Mg
6 15.9993  #o

Atoms

1 1 3 1.482504 0.0 0.0 0.0
2 1 3 1.482504 4.04 0.0 0.0
3 1 3 1.482504 0.0 4.04 0.0
4 1 3 1.482504 4.04 4.04 0.0
5 1 3 1.482504 0.0 0.0 4.04
6 1 3 1.482504 4.04 0.0 4.04
7 1 3 1.482504 0.0 4.04 4.04
8 1 3 1.482504 4.04 4.04 4.04
9 1 5 1.018642 2.02  2.02 2.02
10 1 4 1.28905 6.0600000000000005  2.02 2.02
11 1 4 1.28905 2.02  6.0600000000000005 2.02
12 1 5 1.018642 6.0600000000000005  6.0600000000000005 2.02
13 1 5 1.018642 2.02  2.02 6.0600000000000005
14 1 5 1.018642 6.0600000000000005  2.02 6.0600000000000005
15 1 4 1.28905 2.02  6.0600000000000005 6.0600000000000005
16 1 4 1.28905 6.0600000000000005  6.0600000000000005 6.0600000000000005
17 1 6 -0.878783 2.02 2.02 0.0
18 1 6 -0.878783 6.0600000000000005 2.02 0.0
19 1 6 -0.878783 2.02 6.0600000000000005 0.0
20 1 6 -0.878783 6.0600000000000005 6.0600000000000005 0.0
21 1 6 -0.878783 2.02 2.02 4.04
22 1 6 -0.878783 6.0600000000000005 2.02 4.04
23 1 6 -0.878783 2.02 6.0600000000000005 4.04
24 1 6 -0.878783 6.0600000000000005 6.0600000000000005 4.04
25 1 6 -0.878783 2.02 0.0 2.02
26 1 6 -0.878783 6.0600000000000005 0.0 2.02
27 1 6 -0.878783 2.02 4.04 2.02
28 1 6 -0.878783 6.0600000000000005 4.04 2.02
29 1 6 -0.878783 2.02 0.0 6.0600000000000005
30 1 6 -0.878783 6.0600000000000005 0.0 6.0600000000000005
31 1 6 -0.878783 2.02 4.04 6.0600000000000005
32 1 6 -0.878783 6.0600000000000005 4.04 6.0600000000000005
33 1 6 -0.878783 0.0 2.02 2.02
34 1 6 -0.878783 4.04 2.02 2.02
35 1 6 -0.878783 0.0 6.0600000000000005 2.02
36 1 6 -0.878783 4.04 6.0600000000000005 2.02
37 1 6 -0.878783 0.0 2.02 6.0600000000000005
38 1 6 -0.878783 4.04 2.02 6.0600000000000005
39 1 6 -0.878783 0.0 6.0600000000000005 6.0600000000000005
40 1 6 -0.878783 4.04 6.0600000000000005 6.0600000000000005
